                               Psi4 1.3.2 release

  ==> Input File <==

--------------------------------------------------------------------------
# Any line starting with the # character is a comment line
#! Sample  computation

memory 22 gb

molecule Dimer {
0 1
 C -4.225338    1.085743    0.455218
 C -3.653480   -0.186792   -0.143327
 C -2.150743   -0.188465   -0.186295
 O -1.449925    0.732868    0.207691
 O -1.661398   -1.318102   -0.708252
 H -3.916953    1.956102   -0.119948
 H -5.312952    1.043595    0.464537
 H -3.875223    1.224829    1.475845
 H -4.003236   -0.345656   -1.164839
 H -3.960674   -1.071559    0.416820
 H -0.672249   -1.241866   -0.704162

 --
0 1
 C 2.747592   -0.027136    1.125755
 C 1.739895   -1.046674    0.623045
 H 2.216899    0.891885    1.395861
 H 3.165446   -0.425653    2.054766
 O 0.923971   -0.560258   -0.449869
 H 2.254186   -1.922679    0.226741
 H 1.101739   -1.374782    1.449476
 H 0.415268    0.201639   -0.115954
 C 3.889441    0.291887    0.162458
 H 4.650841    0.851881    0.709946
 H 4.361659   -0.645406   -0.145411
 C 3.477977    1.091094   -1.070309
 H 2.985241    2.019558   -0.776941
 H 4.351125    1.352216   -1.668153
 H 2.785635    0.531889   -1.694410

units angstrom

no_reorient
symmetry c1
}

set globals{
  basis jun-cc-pvtz
}

energy('sapt0')

--------------------------------------------------------------------------

  //              Dimer HF             //
    Molecular point group: c1
  Charge       = 0
  Multiplicity = 1
  Basis Set: JUN-CC-PVTZ
    Blend: JUN-CC-PVTZ
  Basis Set: (JUN-CC-PVTZ AUX)
    Blend: JUN-CC-PVTZ-JKFIT
  @DF-RHF Final Energy:  -499.19854618082439
    Total Energy =                       -499.1985461808244509
  //            Monomer A HF           //
    Molecular point group: c1
  Multiplicity = 1
  Basis Set: JUN-CC-PVTZ
    Blend: JUN-CC-PVTZ
  Basis Set: (JUN-CC-PVTZ AUX)
    Blend: JUN-CC-PVTZ-JKFIT
  @DF-RHF Final Energy:  -266.95066583469821
    Total Energy =                       -266.9506658346982135
  //            Monomer B HF           //
    Molecular point group: c1

    Geometry (in Angstrom), charge = 0, multiplicity = 1:

       Center              X                  Y                   Z               Mass
    ------------   -----------------  -----------------  -----------------  -----------------
      Gh(C)          -4.181557010378     1.106108511288     0.467271309383    12.000000000000
      Gh(C)          -3.609699010378    -0.166426488712    -0.131273690617    12.000000000000
      Gh(C)          -2.106962010378    -0.168099488712    -0.174241690617    12.000000000000
      Gh(O)          -1.406144010378     0.753233511288     0.219744309383    15.994914619570
      Gh(O)          -1.617617010378    -1.297736488712    -0.696198690617    15.994914619570
      Gh(H)          -3.873172010378     1.976467511288    -0.107894690617     1.007825032230
      Gh(H)          -5.269171010378     1.063960511288     0.476590309383     1.007825032230
      Gh(H)          -3.831442010378     1.245194511288     1.487898309383     1.007825032230
      Gh(H)          -3.959455010378    -0.325290488712    -1.152785690617     1.007825032230
      Gh(H)          -3.916893010378    -1.051193488712     0.428873309383     1.007825032230
      Gh(H)          -0.628468010378    -1.221500488712    -0.692108690617     1.007825032230
         C            2.791372989622    -0.006770488712     1.137808309383    12.000000000000
         C            1.783675989622    -1.026308488712     0.635098309383    12.000000000000
         H            2.260679989622     0.912250511288     1.407914309383     1.007825032230
         H            3.209226989622    -0.405287488712     2.066819309383     1.007825032230
         O            0.967751989622    -0.539892488712    -0.437815690617    15.994914619570
         H            2.297966989622    -1.902313488712     0.238794309383     1.007825032230
         H            1.145519989622    -1.354416488712     1.461529309383     1.007825032230
         H            0.459048989622     0.222004511288    -0.103900690617     1.007825032230
         C            3.933221989622     0.312252511288     0.174511309383    12.000000000000
         H            4.694621989622     0.872246511288     0.721999309383     1.007825032230
         H            4.405439989622    -0.625040488712    -0.133357690617     1.007825032230
         C            3.521757989622     1.111459511288    -1.058255690617    12.000000000000
         H            3.029021989622     2.039923511288    -0.764887690617     1.007825032230
         H            4.394905989622     1.372581511288    -1.656099690617     1.007825032230
         H            2.829415989622     0.552254511288    -1.682356690617     1.007825032230

  Charge       = 0
  Multiplicity = 1
  Basis Set: JUN-CC-PVTZ
    Blend: JUN-CC-PVTZ
  Basis Set: (JUN-CC-PVTZ AUX)
    Blend: JUN-CC-PVTZ-JKFIT

    Orbital Energies [Eh]
    ---------------------

    Doubly Occupied:

       1A    -20.554328     2A    -11.272099     3A    -11.220772
       4A    -11.216854     5A    -11.201516     6A     -1.350345
       7A     -1.068597     8A     -0.972691     9A     -0.866174
      10A     -0.790308    11A     -0.675200    12A     -0.638124
      13A     -0.626039    14A     -0.581054    15A     -0.559686
      16A     -0.534435    17A     -0.504150    18A     -0.495971
      19A     -0.473050    20A     -0.459874    21A     -0.425483

  @DF-RHF Final Energy:  -232.23556994894795

   => Energetics <=

    Nuclear Repulsion Energy =            192.1878739896037587
    One-Electron Energy =                -695.8733852161753930
    Two-Electron Energy =                 271.4499412776236795
    Total Energy =                       -232.2355699489479548

  Dipole Moment: [D]
     X:     0.2134      Y:     0.6083      Z:     1.6498     Total:     1.7712

    SAPT Results
  --------------------------------------------------------------------------------------------------------
    Electrostatics                -36.70239356 [mEh]     -23.03109967 [kcal/mol]     -96.36212101 [kJ/mol]
      Elst10,r                    -36.70239356 [mEh]     -23.03109967 [kcal/mol]     -96.36212101 [kJ/mol]

    Exchange                       38.29686243 [mEh]      24.03164399 [kcal/mol]     100.54839846 [kJ/mol]
      Exch10                       38.29686243 [mEh]      24.03164399 [kcal/mol]     100.54839846 [kJ/mol]
      Exch10(S^2)                  37.79498670 [mEh]      23.71671221 [kcal/mol]      99.23072390 [kJ/mol]

    Induction                     -13.90486605 [mEh]      -8.72543518 [kcal/mol]     -36.50722079 [kJ/mol]
      Ind20,r                     -20.97511419 [mEh]     -13.16208287 [kcal/mol]     -55.07015472 [kJ/mol]
      Exch-Ind20,r                 12.84474617 [mEh]       8.06019991 [kcal/mol]      33.72387643 [kJ/mol]
      delta HF,r (2)               -5.77449804 [mEh]      -3.62355222 [kcal/mol]     -15.16094250 [kJ/mol]

    Dispersion                    -10.71724262 [mEh]      -6.72517127 [kcal/mol]     -28.13811661 [kJ/mol]
      Disp20                      -13.44796231 [mEh]      -8.43872375 [kcal/mol]     -35.30762018 [kJ/mol]
      Exch-Disp20                   2.73071969 [mEh]       1.71355248 [kcal/mol]       7.16950357 [kJ/mol]
      Disp20 (SS)                  -6.72398116 [mEh]      -4.21936188 [kcal/mol]     -17.65381009 [kJ/mol]
      Disp20 (OS)                  -6.72398116 [mEh]      -4.21936188 [kcal/mol]     -17.65381009 [kJ/mol]
      Exch-Disp20 (SS)              1.71297527 [mEh]       1.07490821 [kcal/mol]       4.49741596 [kJ/mol]
      Exch-Disp20 (OS)              1.01774442 [mEh]       0.63864427 [kcal/mol]       2.67208761 [kJ/mol]

  Total HF                        -12.31039718 [mEh]      -7.72489086 [kcal/mol]     -32.32094334 [kJ/mol]
  Total SAPT0                     -23.02763980 [mEh]     -14.45006213 [kcal/mol]     -60.45905995 [kJ/mol]

  Special recipe for scaled SAPT0 (see Manual):
    Electrostatics sSAPT0         -36.70239356 [mEh]     -23.03109967 [kcal/mol]     -96.36212101 [kJ/mol]
    Exchange sSAPT0                38.29686243 [mEh]      24.03164399 [kcal/mol]     100.54839846 [kJ/mol]
    Induction sSAPT0              -13.38634909 [mEh]      -8.40006087 [kcal/mol]     -35.14585469 [kJ/mol]
    Dispersion sSAPT0             -10.60700887 [mEh]      -6.65599855 [kcal/mol]     -27.84869795 [kJ/mol]
  Total sSAPT0                    -22.39888908 [mEh]     -14.05551510 [kcal/mol]     -58.80827519 [kJ/mol]
  --------------------------------------------------------------------------------------------------------

*** Psi4 exiting successfully. Buy a developer a beer!
