                               Psi4 1.3.2 release

  ==> Input File <==

--------------------------------------------------------------------------
# Any line starting with the # character is a comment line
#! Sample  computation

memory 22 gb

molecule Dimer {
0 1
 C -3.132978    0.298451    0.205170
 O -2.798110   -0.304591   -0.928829
 O -2.358804    0.711791    1.048660
 H -4.218633    0.383041    0.296178
 H -1.804707   -0.353692   -0.955782

 --
0 1
 C  1.881903   -0.784906    0.752933
 C  0.693951   -1.223721   -0.085219
 H  1.518133   -0.205499    1.608093
 H  2.330173   -1.693014    1.165987
 O -0.151808   -0.136761   -0.486423
 H  1.034162   -1.685006   -1.012510
 H  0.103626   -1.962879    0.464139
 H -0.499792    0.289950    0.315946
 C  2.954385    0.004201    0.004256
 H  3.837276    0.069332    0.643870
 H  3.257867   -0.565740   -0.878474
 C  2.537677    1.412408   -0.409177
 H  2.209853    1.985159    0.459939
 H  3.375260    1.943706   -0.860777
 H  1.716938    1.392528   -1.121643

units angstrom

no_reorient
symmetry c1
}

set globals{
  basis jun-cc-pvtz
}

energy('sapt0')

--------------------------------------------------------------------------

  //              Dimer HF             //
    Molecular point group: c1
  Charge       = 0
  Multiplicity = 1
  Basis Set: JUN-CC-PVTZ
    Blend: JUN-CC-PVTZ
  Basis Set: (JUN-CC-PVTZ AUX)
    Blend: JUN-CC-PVTZ-JKFIT
  @DF-RHF Final Energy:  -421.08954111364028
    Total Energy =                       -421.0895411136402799
  //            Monomer A HF           //
    Molecular point group: c1
  Multiplicity = 1
  Basis Set: JUN-CC-PVTZ
    Blend: JUN-CC-PVTZ
  Basis Set: (JUN-CC-PVTZ AUX)
    Blend: JUN-CC-PVTZ-JKFIT
  @DF-RHF Final Energy:  -188.84079053853159
    Total Energy =                       -188.8407905385315928
  //            Monomer B HF           //
    Molecular point group: c1

    Geometry (in Angstrom), charge = 0, multiplicity = 1:

       Center              X                  Y                   Z               Mass
    ------------   -----------------  -----------------  -----------------  -----------------
      Gh(C)          -3.026943225258     0.295139968615     0.206186899200    12.000000000000
      Gh(O)          -2.692075225258    -0.307902031385    -0.927812100800    15.994914619570
      Gh(O)          -2.252769225258     0.708479968615     1.049676899200    15.994914619570
      Gh(H)          -4.112598225258     0.379729968615     0.297194899200     1.007825032230
      Gh(H)          -1.698672225258    -0.357003031385    -0.954765100800     1.007825032230
         C            1.987937774742    -0.788217031385     0.753949899200    12.000000000000
         C            0.799985774742    -1.227032031385    -0.084202100800    12.000000000000
         H            1.624167774742    -0.208810031385     1.609109899200     1.007825032230
         H            2.436207774742    -1.696325031385     1.167003899200     1.007825032230
         O           -0.045773225258    -0.140072031385    -0.485406100800    15.994914619570
         H            1.140196774742    -1.688317031385    -1.011493100800     1.007825032230
         H            0.209660774742    -1.966190031385     0.465155899200     1.007825032230
         H           -0.393757225258     0.286638968615     0.316962899200     1.007825032230
         C            3.060419774742     0.000889968615     0.005272899200    12.000000000000
         H            3.943310774742     0.066020968615     0.644886899200     1.007825032230
         H            3.363901774742    -0.569051031385    -0.877457100800     1.007825032230
         C            2.643711774742     1.409096968615    -0.408160100800    12.000000000000
         H            2.315887774742     1.981847968615     0.460955899200     1.007825032230
         H            3.481294774742     1.940394968615    -0.859760100800     1.007825032230
         H            1.822972774742     1.389216968615    -1.120626100800     1.007825032230

  Charge       = 0
  Multiplicity = 1
  Basis Set: JUN-CC-PVTZ
    Blend: JUN-CC-PVTZ
  Basis Set: (JUN-CC-PVTZ AUX)
    Blend: JUN-CC-PVTZ-JKFIT

    Orbital Energies [Eh]
    ---------------------

    Doubly Occupied:

       1A    -20.553711     2A    -11.272120     3A    -11.220903
       4A    -11.217003     5A    -11.201703     6A     -1.349817
       7A     -1.068791     8A     -0.972953     9A     -0.866576
      10A     -0.790563    11A     -0.674628    12A     -0.638545
      13A     -0.625809    14A     -0.581364    15A     -0.559915
      16A     -0.534137    17A     -0.503626    18A     -0.496500
      19A     -0.473120    20A     -0.459969    21A     -0.425703

  @DF-RHF Final Energy:  -232.23567403440211

   => Energetics <=

    Nuclear Repulsion Energy =            192.1771710125766788
    One-Electron Energy =                -695.8507764511554115
    Two-Electron Energy =                 271.4379314041766520
    Total Energy =                       -232.2356740344021091

  Dipole Moment: [D]
     X:     0.4914      Y:    -0.5432      Z:     1.6128     Total:     1.7713

    SAPT Results
  --------------------------------------------------------------------------------------------------------
    Electrostatics                -35.96604202 [mEh]     -22.56903210 [kcal/mol]     -94.42883032 [kJ/mol]
      Elst10,r                    -35.96604202 [mEh]     -22.56903210 [kcal/mol]     -94.42883032 [kJ/mol]

    Exchange                       36.82379431 [mEh]      23.10727979 [kcal/mol]      96.68085865 [kJ/mol]
      Exch10                       36.82379431 [mEh]      23.10727979 [kcal/mol]      96.68085865 [kJ/mol]
      Exch10(S^2)                  36.33561343 [mEh]      22.80094166 [kcal/mol]      95.39913991 [kJ/mol]

    Induction                     -13.93429300 [mEh]      -8.74390087 [kcal/mol]     -36.58448122 [kJ/mol]
      Ind20,r                     -20.55786611 [mEh]     -12.90025575 [kcal/mol]     -53.97467005 [kJ/mol]
      Exch-Ind20,r                 12.39406761 [mEh]       7.77739484 [kcal/mol]      32.54062003 [kJ/mol]
      delta HF,r (2)               -5.77049449 [mEh]      -3.62103996 [kcal/mol]     -15.15043120 [kJ/mol]

    Dispersion                    -10.02613435 [mEh]      -6.29149429 [kcal/mol]     -26.32361211 [kJ/mol]
      Disp20                      -12.58164804 [mEh]      -7.89510334 [kcal/mol]     -33.03311237 [kJ/mol]
      Exch-Disp20                   2.55551369 [mEh]       1.60360905 [kcal/mol]       6.70950026 [kJ/mol]
      Disp20 (SS)                  -6.29082402 [mEh]      -3.94755167 [kcal/mol]     -16.51655619 [kJ/mol]
      Disp20 (OS)                  -6.29082402 [mEh]      -3.94755167 [kcal/mol]     -16.51655619 [kJ/mol]
      Exch-Disp20 (SS)              1.60593324 [mEh]       1.00773832 [kcal/mol]       4.21637714 [kJ/mol]
      Exch-Disp20 (OS)              0.94958045 [mEh]       0.59587073 [kcal/mol]       2.49312312 [kJ/mol]

  Total HF                        -13.07654071 [mEh]      -8.20565318 [kcal/mol]     -34.33245290 [kJ/mol]
  Total SAPT0                     -23.10267506 [mEh]     -14.49714747 [kcal/mol]     -60.65606501 [kJ/mol]

  Special recipe for scaled SAPT0 (see Manual):
    Electrostatics sSAPT0         -35.96604202 [mEh]     -22.56903210 [kcal/mol]     -94.42883032 [kJ/mol]
    Exchange sSAPT0                36.82379431 [mEh]      23.10727979 [kcal/mol]      96.68085865 [kJ/mol]
    Induction sSAPT0              -13.42799616 [mEh]      -8.42619480 [kcal/mol]     -35.25519906 [kJ/mol]
    Dispersion sSAPT0              -9.92174179 [mEh]      -6.22598697 [kcal/mol]     -26.04952948 [kJ/mol]
  Total sSAPT0                    -22.49198566 [mEh]     -14.11393408 [kcal/mol]     -59.05270021 [kJ/mol]
  --------------------------------------------------------------------------------------------------------

*** Psi4 exiting successfully. Buy a developer a beer!
