                               Psi4 1.3.2 release

  ==> Input File <==

--------------------------------------------------------------------------
# Any line starting with the # character is a comment line
#! Sample  computation

memory 22 gb

molecule Dimer {
0 1
 C -2.614624    0.184604    0.093281
 O -1.814554    0.694563    0.864243
 O -2.255608   -0.505086   -0.994309
 H -1.263801   -0.505669   -1.029828
 C -4.102587    0.258640    0.250573
 H -4.349878    0.806645    1.152415
 H -4.531481    0.751540   -0.619883
 H -4.513441   -0.748090    0.292975

 --
0 1
 C  2.337562   -0.693121    0.847138
 C  1.209464   -1.214002   -0.026696
 H  1.915744   -0.039232    1.617626
 H  2.756694   -1.556470    1.371929
 O  0.395904   -0.175110   -0.585916
 H  1.613315   -1.761107   -0.879033
 H  0.581973   -1.901154    0.549322
 H -0.018294    0.310022    0.151424
 C  3.458765    0.030188    0.103344
 H  4.297463    0.157360    0.791426
 H  3.819591   -0.615573   -0.702314
 C  3.071706    1.393145   -0.462565
 H  2.688823    2.040588    0.328059
 H  3.937445    1.885231   -0.905643
 H  2.298196    1.304241   -1.221070

units angstrom

no_reorient
symmetry c1
}

set globals{
  basis jun-cc-pvtz
}

energy('sapt0')

--------------------------------------------------------------------------

  //              Dimer HF             //
    Molecular point group: c1
  Charge       = 0
  Multiplicity = 1
  Basis Set: JUN-CC-PVTZ
    Blend: JUN-CC-PVTZ
  Basis Set: (JUN-CC-PVTZ AUX)
    Blend: JUN-CC-PVTZ-JKFIT
  @DF-RHF Final Energy:  -460.15043924909344
    Total Energy =                       -460.1504392490934379
  //            Monomer A HF           //
    Molecular point group: c1
  Multiplicity = 1
  Basis Set: JUN-CC-PVTZ
    Blend: JUN-CC-PVTZ
  Basis Set: (JUN-CC-PVTZ AUX)
    Blend: JUN-CC-PVTZ-JKFIT
  @DF-RHF Final Energy:  -227.90236855706593
    Total Energy =                       -227.9023685570659268
  //            Monomer B HF           //
    Molecular point group: c1

    Geometry (in Angstrom), charge = 0, multiplicity = 1:

       Center              X                  Y                   Z               Mass
    ------------   -----------------  -----------------  -----------------  -----------------
      Gh(C)          -2.546452429995     0.185554203439     0.099893837188    12.000000000000
      Gh(O)          -1.746382429995     0.695513203439     0.870855837188    15.994914619570
      Gh(O)          -2.187436429995    -0.504135796561    -0.987696162812    15.994914619570
      Gh(H)          -1.195629429995    -0.504718796561    -1.023215162812     1.007825032230
      Gh(C)          -4.034415429995     0.259590203439     0.257185837188    12.000000000000
      Gh(H)          -4.281706429995     0.807595203439     1.159027837188     1.007825032230
      Gh(H)          -4.463309429995     0.752490203439    -0.613270162812     1.007825032230
      Gh(H)          -4.445269429995    -0.747139796561     0.299587837188     1.007825032230
         C            2.405733570005    -0.692170796561     0.853750837188    12.000000000000
         C            1.277635570005    -1.213051796561    -0.020083162812    12.000000000000
         H            1.983915570005    -0.038281796561     1.624238837188     1.007825032230
         H            2.824865570005    -1.555519796561     1.378541837188     1.007825032230
         O            0.464075570005    -0.174159796561    -0.579303162812    15.994914619570
         H            1.681486570005    -1.760156796561    -0.872420162812     1.007825032230
         H            0.650144570005    -1.900203796561     0.555934837188     1.007825032230
         H            0.049877570005     0.310972203439     0.158036837188     1.007825032230
         C            3.526936570005     0.031138203439     0.109956837188    12.000000000000
         H            4.365634570005     0.158310203439     0.798038837188     1.007825032230
         H            3.887762570005    -0.614622796561    -0.695701162812     1.007825032230
         C            3.139877570005     1.394095203439    -0.455952162812    12.000000000000
         H            2.756994570005     2.041538203439     0.334671837188     1.007825032230
         H            4.005616570005     1.886181203439    -0.899030162812     1.007825032230
         H            2.366367570005     1.305191203439    -1.214457162812     1.007825032230

  Charge       = 0
  Multiplicity = 1
  Basis Set: JUN-CC-PVTZ
    Blend: JUN-CC-PVTZ
  Basis Set: (JUN-CC-PVTZ AUX)
    Blend: JUN-CC-PVTZ-JKFIT

    Orbital Energies [Eh]
    ---------------------

    Doubly Occupied:

       1A    -20.554275     2A    -11.272102     3A    -11.220750
       4A    -11.216843     5A    -11.201495     6A     -1.350264
       7A     -1.068596     8A     -0.972688     9A     -0.866198
      10A     -0.790286    11A     -0.675239    12A     -0.638106
      13A     -0.625951    14A     -0.581081    15A     -0.559646
      16A     -0.534375    17A     -0.504170    18A     -0.495960
      19A     -0.473019    20A     -0.459846    21A     -0.425498

  @DF-RHF Final Energy:  -232.23557327499503

   => Energetics <=

    Nuclear Repulsion Energy =            192.1850703037247001
    One-Electron Energy =                -695.8685095577570792
    Two-Electron Energy =                 271.4478659790373172
    Total Energy =                       -232.2355732749950334

  Dipole Moment: [D]
     X:     0.3502      Y:    -0.4024      Z:     1.6887     Total:     1.7709

    SAPT Results
  --------------------------------------------------------------------------------------------------------
    Electrostatics                -36.85096002 [mEh]     -23.12432653 [kcal/mol]     -96.75218220 [kJ/mol]
      Elst10,r                    -36.85096002 [mEh]     -23.12432653 [kcal/mol]     -96.75218220 [kJ/mol]

    Exchange                       38.38567088 [mEh]      24.08737213 [kcal/mol]     100.78156501 [kJ/mol]
      Exch10                       38.38567088 [mEh]      24.08737213 [kcal/mol]     100.78156501 [kJ/mol]
      Exch10(S^2)                  37.88053292 [mEh]      23.77039328 [kcal/mol]      99.45532547 [kJ/mol]

    Induction                     -14.03212789 [mEh]      -8.80529319 [kcal/mol]     -36.84134670 [kJ/mol]
      Ind20,r                     -21.06586834 [mEh]     -13.21903196 [kcal/mol]     -55.30842971 [kJ/mol]
      Exch-Ind20,r                 12.85280839 [mEh]       8.06525903 [kcal/mol]      33.74504377 [kJ/mol]
      delta HF,r (2)               -5.81906794 [mEh]      -3.65152026 [kcal/mol]     -15.27796077 [kJ/mol]

    Dispersion                    -10.62006266 [mEh]      -6.66418993 [kcal/mol]     -27.88297067 [kJ/mol]
      Disp20                      -13.33908460 [mEh]      -8.37040196 [kcal/mol]     -35.02176178 [kJ/mol]
      Exch-Disp20                   2.71902194 [mEh]       1.70621202 [kcal/mol]       7.13879111 [kJ/mol]
      Disp20 (SS)                  -6.66954230 [mEh]      -4.18520098 [kcal/mol]     -17.51088089 [kJ/mol]
      Disp20 (OS)                  -6.66954230 [mEh]      -4.18520098 [kcal/mol]     -17.51088089 [kJ/mol]
      Exch-Disp20 (SS)              1.70614974 [mEh]       1.07062512 [kcal/mol]       4.47949552 [kJ/mol]
      Exch-Disp20 (OS)              1.01287220 [mEh]       0.63558690 [kcal/mol]       2.65929559 [kJ/mol]

  Total HF                        -12.49741703 [mEh]      -7.84224759 [kcal/mol]     -32.81196390 [kJ/mol]
  Total SAPT0                     -23.11747969 [mEh]     -14.50643752 [kcal/mol]     -60.69493457 [kJ/mol]

  Special recipe for scaled SAPT0 (see Manual):
    Electrostatics sSAPT0         -36.85096002 [mEh]     -23.12432653 [kcal/mol]     -96.75218220 [kJ/mol]
    Exchange sSAPT0                38.38567088 [mEh]      24.08737213 [kcal/mol]     100.78156501 [kJ/mol]
    Induction sSAPT0              -13.51106317 [mEh]      -8.47832014 [kcal/mol]     -35.47329146 [kJ/mol]
    Dispersion sSAPT0             -10.50983100 [mEh]      -6.59501852 [kcal/mol]     -27.59355749 [kJ/mol]
  Total sSAPT0                    -22.48618331 [mEh]     -14.11029305 [kcal/mol]     -59.03746614 [kJ/mol]
  --------------------------------------------------------------------------------------------------------

*** Psi4 exiting successfully. Buy a developer a beer!
