                               Psi4 1.3.2 release

  ==> Input File <==

--------------------------------------------------------------------------
# Any line starting with the # character is a comment line
#! Sample  computation

memory 22 gb

molecule Dimer {
0 1
 C -2.069570    0.242061    0.117197
 O -1.511858   -0.674169    0.899958
 O -1.575811    0.716513   -0.888691
 H -3.054180    0.529101    0.494532
 H -0.621631   -0.891137    0.514001

 --
0 1
 C  1.929066    0.925047    0.585036
 C  2.029904   -0.354810   -0.219977
 O  0.741449   -0.881199   -0.562102
 H  1.418162    1.700567    0.014247
 H  2.924036    1.289658    0.840413
 H  1.375847    0.755953    1.507833

H  2.609462   -0.195412   -1.131305

H  2.519563   -1.138724    0.353977

H  0.262104   -0.212957   -1.080554

units angstrom

no_reorient
symmetry c1
}

set globals{
  basis jun-cc-pvtz
}

energy('sapt0')

--------------------------------------------------------------------------

  //              Dimer HF             //
    Molecular point group: c1
  Charge       = 0
  Multiplicity = 1
  Basis Set: JUN-CC-PVTZ
    Blend: JUN-CC-PVTZ
  Basis Set: (JUN-CC-PVTZ AUX)
    Blend: JUN-CC-PVTZ-JKFIT
  @DF-RHF Final Energy:  -342.99730685586178
    Total Energy =                       -342.9973068558617797
  //            Monomer A HF           //
    Molecular point group: c1
  Multiplicity = 1
  Basis Set: JUN-CC-PVTZ
    Blend: JUN-CC-PVTZ
  Basis Set: (JUN-CC-PVTZ AUX)
    Blend: JUN-CC-PVTZ-JKFIT
  @DF-RHF Final Energy:  -188.84089232276833
    Total Energy =                       -188.8408923227683260
  //            Monomer B HF           //
    Molecular point group: c1

    Geometry (in Angstrom), charge = 0, multiplicity = 1:

       Center              X                  Y                   Z               Mass
    ------------   -----------------  -----------------  -----------------  -----------------
      Gh(C)          -1.989575738956     0.261816204814     0.133476691807    12.000000000000
      Gh(O)          -1.431863738956    -0.654413795186     0.916237691807    15.994914619570
      Gh(O)          -1.495816738956     0.736268204814    -0.872411308193    15.994914619570
      Gh(H)          -2.974185738956     0.548856204814     0.510811691807     1.007825032230
      Gh(H)          -0.541636738956    -0.871381795186     0.530280691807     1.007825032230
         C            2.009060261044     0.944802204814     0.601315691807    12.000000000000
         C            2.109898261044    -0.335054795186    -0.203697308193    12.000000000000
         O            0.821443261044    -0.861443795186    -0.545822308193    15.994914619570
         H            1.498156261044     1.720322204814     0.030526691807     1.007825032230
         H            3.004030261044     1.309413204814     0.856692691807     1.007825032230
         H            1.455841261044     0.775708204814     1.524112691807     1.007825032230
         H            2.689456261044    -0.175656795186    -1.115025308193     1.007825032230
         H            2.599557261044    -1.118968795186     0.370256691807     1.007825032230
         H            0.342098261044    -0.193201795186    -1.064274308193     1.007825032230

  Charge       = 0
  Multiplicity = 1
  Basis Set: JUN-CC-PVTZ
    Blend: JUN-CC-PVTZ
  Basis Set: (JUN-CC-PVTZ AUX)
    Blend: JUN-CC-PVTZ-JKFIT

    Orbital Energies [Eh]
    ---------------------

    Doubly Occupied:

       1A    -20.554686     2A    -11.274548     3A    -11.218586
       4A     -1.350022     5A     -1.014197     6A     -0.848020
       7A     -0.682489     8A     -0.622112     9A     -0.606817
      10A     -0.544721    11A     -0.525877    12A     -0.482868
      13A     -0.443870

  @DF-RHF Final Energy:  -154.14387234907193

   => Energetics <=

    Nuclear Repulsion Energy =             81.6256854240479157
    One-Electron Energy =                -371.2014892437517801
    Two-Electron Energy =                 135.4319314706319517
    Total Energy =                       -154.1438723490719269

  Dipole Moment: [D]
     X:     0.7483      Y:     1.6880      Z:    -0.3071     Total:     1.8718

    SAPT Results
  --------------------------------------------------------------------------------------------------------
    Electrostatics                -35.34183101 [mEh]     -22.17733378 [kcal/mol]     -92.78996454 [kJ/mol]
      Elst10,r                    -35.34183101 [mEh]     -22.17733378 [kcal/mol]     -92.78996454 [kJ/mol]

    Exchange                       36.33931928 [mEh]      22.80326712 [kcal/mol]      95.40886963 [kJ/mol]
      Exch10                       36.33931928 [mEh]      22.80326712 [kcal/mol]      95.40886963 [kJ/mol]
      Exch10(S^2)                  35.85946595 [mEh]      22.50215461 [kcal/mol]      94.14901489 [kJ/mol]

    Induction                     -13.53967229 [mEh]      -8.49627263 [kcal/mol]     -35.54840470 [kJ/mol]
      Ind20,r                     -20.14865642 [mEh]     -12.64347279 [kcal/mol]     -52.90029015 [kJ/mol]
      Exch-Ind20,r                 12.20870352 [mEh]       7.66107712 [kcal/mol]      32.05394669 [kJ/mol]
      delta HF,r (2)               -5.59971939 [mEh]      -3.51387697 [kcal/mol]     -14.70206123 [kJ/mol]

    Dispersion                    -10.44965258 [mEh]      -6.55725599 [kcal/mol]     -27.43555907 [kJ/mol]
      Disp20                      -13.00670095 [mEh]      -8.16182807 [kcal/mol]     -34.14908865 [kJ/mol]
      Exch-Disp20                   2.55704837 [mEh]       1.60457208 [kcal/mol]       6.71352957 [kJ/mol]
      Disp20 (SS)                  -6.50335048 [mEh]      -4.08091404 [kcal/mol]     -17.07454432 [kJ/mol]
      Disp20 (OS)                  -6.50335048 [mEh]      -4.08091404 [kcal/mol]     -17.07454432 [kJ/mol]
      Exch-Disp20 (SS)              1.60954893 [mEh]       1.01000720 [kcal/mol]       4.22587013 [kJ/mol]
      Exch-Disp20 (OS)              0.94749944 [mEh]       0.59456488 [kcal/mol]       2.48765945 [kJ/mol]

  Total HF                        -12.54218402 [mEh]      -7.87033930 [kcal/mol]     -32.92949961 [kJ/mol]
  Total SAPT0                     -22.99183660 [mEh]     -14.42759529 [kcal/mol]     -60.36505869 [kJ/mol]

  Special recipe for scaled SAPT0 (see Manual):
    Electrostatics sSAPT0         -35.34183101 [mEh]     -22.17733378 [kcal/mol]     -92.78996454 [kJ/mol]
    Exchange sSAPT0                36.33931928 [mEh]      22.80326712 [kcal/mol]      95.40886963 [kJ/mol]
    Induction sSAPT0              -13.04297242 [mEh]      -8.18458876 [kcal/mol]     -34.24431937 [kJ/mol]
    Dispersion sSAPT0             -10.34562142 [mEh]      -6.49197545 [kcal/mol]     -27.16242530 [kJ/mol]
  Total sSAPT0                    -22.39110558 [mEh]     -14.05063088 [kcal/mol]     -58.78783959 [kJ/mol]
  --------------------------------------------------------------------------------------------------------

*** Psi4 exiting successfully. Buy a developer a beer!
