                               Psi4 1.3.2 release

  ==> Input File <==

--------------------------------------------------------------------------
# Any line starting with the # character is a comment line
#! Sample  computation

memory 22 gb

molecule Dimer {
0 1
 C 1.764348    0.044289   -0.000243
 O 1.343552    1.191588    0.004321
 O 0.996427   -1.023061   -0.245059
 H 0.076518   -0.691193   -0.412495
 C 3.190043   -0.333572    0.262927
 H 3.772409    0.555492    0.475537
 H 3.233163   -1.025439    1.101724
 H 3.591753   -0.848314   -0.607839

 --
0 1
 C  -3.242806   -0.665469    0.156269
 C  -2.301244    0.494953    0.373374
 O  -1.265113    0.410872   -0.612657
 H  -3.663051   -0.626705   -0.846950
 H  -4.057662   -0.630410    0.878186
 H  -2.716102   -1.611162    0.274948

H  -2.829949    1.444082    0.265671

H  -1.866957    0.457711    1.375848

H  -0.601098    1.099545   -0.431438

units angstrom

no_reorient
symmetry c1
}

set globals{
  basis jun-cc-pvtz
}

energy('sapt0')

--------------------------------------------------------------------------

  //              Dimer HF             //
    Molecular point group: c1
  Charge       = 0
  Multiplicity = 1
  Basis Set: JUN-CC-PVTZ
    Blend: JUN-CC-PVTZ
  Basis Set: (JUN-CC-PVTZ AUX)
    Blend: JUN-CC-PVTZ-JKFIT
  @DF-RHF Final Energy:  -382.05899067662244
    Total Energy =                       -382.0589906766224431
  //            Monomer A HF           //
    Molecular point group: c1
  Multiplicity = 1
  Basis Set: JUN-CC-PVTZ
    Blend: JUN-CC-PVTZ
  Basis Set: (JUN-CC-PVTZ AUX)
    Blend: JUN-CC-PVTZ-JKFIT
  @DF-RHF Final Energy:  -227.90242066464037
    Total Energy =                       -227.9024206646403741
  //            Monomer B HF           //
    Molecular point group: c1

    Geometry (in Angstrom), charge = 0, multiplicity = 1:

       Center              X                  Y                   Z               Mass
    ------------   -----------------  -----------------  -----------------  -----------------
      Gh(C)           1.717056259503     0.026763814007     0.019110039987    12.000000000000
      Gh(O)           1.296260259503     1.174062814007     0.023674039987    15.994914619570
      Gh(O)           0.949135259503    -1.040586185993    -0.225705960013    15.994914619570
      Gh(H)           0.029226259503    -0.708718185993    -0.393141960013     1.007825032230
      Gh(C)           3.142751259503    -0.351097185993     0.282280039987    12.000000000000
      Gh(H)           3.725117259503     0.537966814007     0.494890039987     1.007825032230
      Gh(H)           3.185871259503    -1.042964185993     1.121077039987     1.007825032230
      Gh(H)           3.544461259503    -0.865839185993    -0.588485960013     1.007825032230
         C           -3.290097740497    -0.682994185993     0.175622039987    12.000000000000
         C           -2.348535740497     0.477427814007     0.392727039987    12.000000000000
         O           -1.312404740497     0.393346814007    -0.593303960013    15.994914619570
         H           -3.710342740497    -0.644230185993    -0.827596960013     1.007825032230
         H           -4.104953740497    -0.647935185993     0.897539039987     1.007825032230
         H           -2.763393740497    -1.628687185993     0.294301039987     1.007825032230
         H           -2.877240740497     1.426556814007     0.285024039987     1.007825032230
         H           -1.914248740497     0.440185814007     1.395201039987     1.007825032230
         H           -0.648389740497     1.082019814007    -0.412084960013     1.007825032230

  Charge       = 0
  Multiplicity = 1
  Basis Set: JUN-CC-PVTZ
    Blend: JUN-CC-PVTZ
  Basis Set: (JUN-CC-PVTZ AUX)
    Blend: JUN-CC-PVTZ-JKFIT

    Orbital Energies [Eh]
    ---------------------

    Doubly Occupied:

       1A    -20.555309     2A    -11.274296     3A    -11.211593
       4A     -1.350024     5A     -1.013161     6A     -0.834639
       7A     -0.693940     8A     -0.645253     9A     -0.569037
      10A     -0.533319    11A     -0.525245    12A     -0.489042
      13A     -0.442557

  @DF-RHF Final Energy:  -154.14422939429133

   => Energetics <=

    Nuclear Repulsion Energy =             81.7479111047699973
    One-Electron Energy =                -371.5094469900665217
    Two-Electron Energy =                 135.6173064910052233
    Total Energy =                       -154.1442293942913295

  Dipole Moment: [D]
     X:    -0.1486      Y:     1.0881      Z:     1.3450     Total:     1.7364

    SAPT Results
  --------------------------------------------------------------------------------------------------------
    Electrostatics                -36.13318452 [mEh]     -22.67391561 [kcal/mol]     -94.86766290 [kJ/mol]
      Elst10,r                    -36.13318452 [mEh]     -22.67391561 [kcal/mol]     -94.86766290 [kJ/mol]

    Exchange                       37.44004131 [mEh]      23.49398062 [kcal/mol]      98.29881492 [kJ/mol]
      Exch10                       37.44004131 [mEh]      23.49398062 [kcal/mol]      98.29881492 [kJ/mol]
      Exch10(S^2)                  36.95392326 [mEh]      23.18893694 [kcal/mol]      97.02251216 [kJ/mol]

    Induction                     -13.64747448 [mEh]      -8.56391953 [kcal/mol]     -35.83143930 [kJ/mol]
      Ind20,r                     -20.49236429 [mEh]     -12.85915273 [kcal/mol]     -53.80269502 [kJ/mol]
      Exch-Ind20,r                 12.52548181 [mEh]       7.85985850 [kcal/mol]      32.88564796 [kJ/mol]
      delta HF,r (2)               -5.68059200 [mEh]      -3.56462529 [kcal/mol]     -14.91439223 [kJ/mol]

    Dispersion                    -10.24225517 [mEh]      -6.42711215 [kcal/mol]     -26.89103724 [kJ/mol]
      Disp20                      -12.87681537 [mEh]      -8.08032364 [kcal/mol]     -33.80807410 [kJ/mol]
      Exch-Disp20                   2.63456020 [mEh]       1.65321149 [kcal/mol]       6.91703686 [kJ/mol]
      Disp20 (SS)                  -6.43840769 [mEh]      -4.04016182 [kcal/mol]     -16.90403705 [kJ/mol]
      Disp20 (OS)                  -6.43840769 [mEh]      -4.04016182 [kcal/mol]     -16.90403705 [kJ/mol]
      Exch-Disp20 (SS)              1.65448395 [mEh]       1.03820435 [kcal/mol]       4.34384702 [kJ/mol]
      Exch-Disp20 (OS)              0.98007625 [mEh]       0.61500713 [kcal/mol]       2.57318984 [kJ/mol]

  Total HF                        -12.34061769 [mEh]      -7.74385451 [kcal/mol]     -32.40028728 [kJ/mol]
  Total SAPT0                     -22.58287286 [mEh]     -14.17096666 [kcal/mol]     -59.29132452 [kJ/mol]

  Special recipe for scaled SAPT0 (see Manual):
    Electrostatics sSAPT0         -36.13318452 [mEh]     -22.67391561 [kcal/mol]     -94.86766290 [kJ/mol]
    Exchange sSAPT0                37.44004131 [mEh]      23.49398062 [kcal/mol]      98.29881492 [kJ/mol]
    Induction sSAPT0              -13.14663635 [mEh]      -8.24963886 [kcal/mol]     -34.51648899 [kJ/mol]
    Dispersion sSAPT0             -10.13691086 [mEh]      -6.36100760 [kcal/mol]     -26.61445580 [kJ/mol]
  Total sSAPT0                    -21.97669043 [mEh]     -13.79058145 [kcal/mol]     -57.69979277 [kJ/mol]
  --------------------------------------------------------------------------------------------------------

*** Psi4 exiting successfully. Buy a developer a beer!
