                               Psi4 1.3.2 release

  ==> Input File <==

--------------------------------------------------------------------------
# Any line starting with the # character is a comment line
#! Sample  computation

memory 22 gb

molecule Dimer {
0 1
 C -3.342805    0.794306   -0.182193
 C -2.505326   -0.279849    0.488188
 C -1.086056   -0.308012   -0.007102
 O -0.639716    0.443418   -0.861592
 O -0.359946   -1.255453    0.596723
 H -3.378194    0.641241   -1.258653
 H -4.360168    0.776895    0.204404
 H -2.921262    1.781296   -0.003885
 H -2.921054   -1.275909    0.326701
 H -2.466265   -0.146075    1.570597
 H  0.557546   -1.207397    0.224858

 --
0 1
 C  2.597703    1.023309    0.865269
 C  3.025317    0.055244   -0.220188
 O  1.919519   -0.679174   -0.756573
 H  1.896898    1.759095    0.470585
 H  3.463727    1.554261    1.260859
 H  2.114146    0.492375    1.684255

H  3.538175    0.582517   -1.027388

H  3.708666   -0.693850    0.174899

H  1.275928   -0.044766   -1.119529

units angstrom

no_reorient
symmetry c1
}

set globals{
  basis jun-cc-pvtz
}

energy('sapt0')

--------------------------------------------------------------------------

  //              Dimer HF             //
    Molecular point group: c1
  Charge       = 0
  Multiplicity = 1
  Basis Set: JUN-CC-PVTZ
    Blend: JUN-CC-PVTZ
  Basis Set: (JUN-CC-PVTZ AUX)
    Blend: JUN-CC-PVTZ-JKFIT
  @DF-RHF Final Energy:  -421.10632096236640
    Total Energy =                       -421.1063209623663397
  //            Monomer A HF           //
    Molecular point group: c1
  Multiplicity = 1
  Basis Set: JUN-CC-PVTZ
    Blend: JUN-CC-PVTZ
  Basis Set: (JUN-CC-PVTZ AUX)
    Blend: JUN-CC-PVTZ-JKFIT
  @DF-RHF Final Energy:  -266.95080204004768
    Total Energy =                       -266.9508020400476767
  //            Monomer B HF           //
    Molecular point group: c1

    Geometry (in Angstrom), charge = 0, multiplicity = 1:

       Center              X                  Y                   Z               Mass
    ------------   -----------------  -----------------  -----------------  -----------------
      Gh(C)          -3.338567355658     0.829108878611    -0.161516020029    12.000000000000
      Gh(C)          -2.501088355658    -0.245046121389     0.508864979971    12.000000000000
      Gh(C)          -1.081818355658    -0.273209121389     0.013574979971    12.000000000000
      Gh(O)          -0.635478355658     0.478220878611    -0.840915020029    15.994914619570
      Gh(O)          -0.355708355658    -1.220650121389     0.617399979971    15.994914619570
      Gh(H)          -3.373956355658     0.676043878611    -1.237976020029     1.007825032230
      Gh(H)          -4.355930355658     0.811697878611     0.225080979971     1.007825032230
      Gh(H)          -2.917024355658     1.816098878611     0.016791979971     1.007825032230
      Gh(H)          -2.916816355658    -1.241106121389     0.347377979971     1.007825032230
      Gh(H)          -2.462027355658    -0.111272121389     1.591273979971     1.007825032230
      Gh(H)           0.561783644342    -1.172594121389     0.245534979971     1.007825032230
         C            2.601940644342     1.058111878611     0.885945979971    12.000000000000
         C            3.029554644342     0.090046878611    -0.199511020029    12.000000000000
         O            1.923756644342    -0.644371121389    -0.735896020029    15.994914619570
         H            1.901135644342     1.793897878611     0.491261979971     1.007825032230
         H            3.467964644342     1.589063878611     1.281535979971     1.007825032230
         H            2.118383644342     0.527177878611     1.704931979971     1.007825032230
         H            3.542412644342     0.617319878611    -1.006711020029     1.007825032230
         H            3.712903644342    -0.659047121389     0.195575979971     1.007825032230
         H            1.280165644342    -0.009963121389    -1.098852020029     1.007825032230

  Charge       = 0
  Multiplicity = 1
  Basis Set: JUN-CC-PVTZ
    Blend: JUN-CC-PVTZ
  Basis Set: (JUN-CC-PVTZ AUX)
    Blend: JUN-CC-PVTZ-JKFIT

    Orbital Energies [Eh]
    ---------------------

    Doubly Occupied:

       1A    -20.555097     2A    -11.274490     3A    -11.218625
       4A     -1.350361     5A     -1.013935     6A     -0.847867
       7A     -0.682397     8A     -0.622262     9A     -0.607045
      10A     -0.544578    11A     -0.526122    12A     -0.482787
      13A     -0.443671

  @DF-RHF Final Energy:  -154.14381404184545

   => Energetics <=

    Nuclear Repulsion Energy =             81.6330255703834240
    One-Electron Energy =                -371.2151992067631454
    Two-Electron Energy =                 135.4383595945342620
    Total Energy =                       -154.1438140418454452

  Dipole Moment: [D]
     X:     0.2696      Y:     1.8433      Z:     0.1645     Total:     1.8701

    SAPT Results
  --------------------------------------------------------------------------------------------------------
    Electrostatics                -35.91959979 [mEh]     -22.53988916 [kcal/mol]     -94.30689624 [kJ/mol]
      Elst10,r                    -35.91959979 [mEh]     -22.53988916 [kcal/mol]     -94.30689624 [kJ/mol]

    Exchange                       37.57819711 [mEh]      23.58067469 [kcal/mol]      98.66154292 [kJ/mol]
      Exch10                       37.57819711 [mEh]      23.58067469 [kcal/mol]      98.66154292 [kJ/mol]
      Exch10(S^2)                  37.09627811 [mEh]      23.27826596 [kcal/mol]      97.39626476 [kJ/mol]

    Induction                     -13.36347780 [mEh]      -8.38570892 [kcal/mol]     -35.08580612 [kJ/mol]
      Ind20,r                     -20.35934969 [mEh]     -12.77568481 [kcal/mol]     -53.45346525 [kJ/mol]
      Exch-Ind20,r                 12.52621722 [mEh]       7.86031998 [kcal/mol]      32.88757879 [kJ/mol]
      delta HF,r (2)               -5.53034533 [mEh]      -3.47034409 [kcal/mol]     -14.51991966 [kJ/mol]

    Dispersion                    -11.20258737 [mEh]      -7.02972971 [kcal/mol]     -29.41238909 [kJ/mol]
      Disp20                      -13.92927318 [mEh]      -8.74075088 [kcal/mol]     -36.57130169 [kJ/mol]
      Exch-Disp20                   2.72668581 [mEh]       1.71102118 [kcal/mol]       7.15891261 [kJ/mol]
      Disp20 (SS)                  -6.96463659 [mEh]      -4.37037544 [kcal/mol]     -18.28565085 [kJ/mol]
      Disp20 (OS)                  -6.96463659 [mEh]      -4.37037544 [kcal/mol]     -18.28565085 [kJ/mol]
      Exch-Disp20 (SS)              1.71417458 [mEh]       1.07566079 [kcal/mol]       4.50056474 [kJ/mol]
      Exch-Disp20 (OS)              1.01251123 [mEh]       0.63536039 [kcal/mol]       2.65834787 [kJ/mol]

  Total HF                        -11.70488047 [mEh]      -7.34492339 [kcal/mol]     -30.73115945 [kJ/mol]
  Total SAPT0                     -22.90746784 [mEh]     -14.37465309 [kcal/mol]     -60.14354854 [kJ/mol]

  Special recipe for scaled SAPT0 (see Manual):
    Electrostatics sSAPT0         -35.91959979 [mEh]     -22.53988916 [kcal/mol]     -94.30689624 [kJ/mol]
    Exchange sSAPT0                37.57819711 [mEh]      23.58067469 [kcal/mol]      98.66154292 [kJ/mol]
    Induction sSAPT0              -12.86892277 [mEh]      -8.07537095 [kcal/mol]     -33.78735207 [kJ/mol]
    Dispersion sSAPT0             -11.09493347 [mEh]      -6.96217586 [kcal/mol]     -29.12974380 [kJ/mol]
  Total sSAPT0                    -22.30525891 [mEh]     -13.99676128 [kcal/mol]     -58.56244920 [kJ/mol]
  --------------------------------------------------------------------------------------------------------

*** Psi4 exiting successfully. Buy a developer a beer!
