                               Psi4 1.3.2 release

  ==> Input File <==

--------------------------------------------------------------------------
# Any line starting with the # character is a comment line
#! Sample  computation

memory 22 gb

molecule Dimer {
0 1
 C -2.376615    0.306315    0.163413
 O -1.845336    0.324098   -1.053575
 O -1.895674   -0.229229    1.144221
 H -3.325685    0.847915    0.180362
 H -0.988095   -0.175927   -1.012467

 --
0 1
 C   2.095996    0.212074    0.554429
 C   1.701753   -1.024939   -0.231174
 H   1.675900    0.141642    1.561536
 H   3.182715    0.201069    0.668694
 O   0.283791   -1.160194   -0.378057
 H   2.094659   -0.973574   -1.246392

H   2.102951   -1.923932    0.242137

H  -0.134979   -1.122650    0.498064

C   1.651218    1.507852   -0.110798

H   0.566703    1.557659   -0.192626

H   1.981552    2.374135    0.460398

H   2.067920    1.588451   -1.115636

units angstrom

no_reorient
symmetry c1
}

set globals{
  basis jun-cc-pvtz
}

energy('sapt0')

--------------------------------------------------------------------------

  //              Dimer HF             //
    Molecular point group: c1
  Charge       = 0
  Multiplicity = 1
  Basis Set: JUN-CC-PVTZ
    Blend: JUN-CC-PVTZ
  Basis Set: (JUN-CC-PVTZ AUX)
    Blend: JUN-CC-PVTZ-JKFIT
  @DF-RHF Final Energy:  -382.04468451296987
    Total Energy =                       -382.0446845129698659
  //            Monomer A HF           //
    Molecular point group: c1
  Multiplicity = 1
  Basis Set: JUN-CC-PVTZ
    Blend: JUN-CC-PVTZ
  Basis Set: (JUN-CC-PVTZ AUX)
    Blend: JUN-CC-PVTZ-JKFIT
  @DF-RHF Final Energy:  -188.84101884841559
    Total Energy =                       -188.8410188484155867
  //            Monomer B HF           //
    Molecular point group: c1

    Geometry (in Angstrom), charge = 0, multiplicity = 1:

       Center              X                  Y                   Z               Mass
    ------------   -----------------  -----------------  -----------------  -----------------
      Gh(C)          -2.290497476083     0.329788711441     0.163811438276    12.000000000000
      Gh(O)          -1.759218476083     0.347571711441    -1.053176561724    15.994914619570
      Gh(O)          -1.809556476083    -0.205755288559     1.144619438276    15.994914619570
      Gh(H)          -3.239567476083     0.871388711441     0.180760438276     1.007825032230
      Gh(H)          -0.901977476083    -0.152453288559    -1.012068561724     1.007825032230
         C            2.182113523917     0.235547711441     0.554827438276    12.000000000000
         C            1.787870523917    -1.001465288559    -0.230775561724    12.000000000000
         H            1.762017523917     0.165115711441     1.561934438276     1.007825032230
         H            3.268832523917     0.224542711441     0.669092438276     1.007825032230
         O            0.369908523917    -1.136720288559    -0.377658561724    15.994914619570
         H            2.180776523917    -0.950100288559    -1.245993561724     1.007825032230
         H            2.189068523917    -1.900458288559     0.242535438276     1.007825032230
         H           -0.048861476083    -1.099176288559     0.498462438276     1.007825032230
         C            1.737335523917     1.531325711441    -0.110399561724    12.000000000000
         H            0.652820523917     1.581132711441    -0.192227561724     1.007825032230
         H            2.067669523917     2.397608711441     0.460796438276     1.007825032230
         H            2.154037523917     1.611924711441    -1.115237561724     1.007825032230

  Charge       = 0
  Multiplicity = 1
  Basis Set: JUN-CC-PVTZ
    Blend: JUN-CC-PVTZ
  Basis Set: (JUN-CC-PVTZ AUX)
    Blend: JUN-CC-PVTZ-JKFIT

    Orbital Energies [Eh]
    ---------------------

    Doubly Occupied:

       1A    -20.553567     2A    -11.271364     3A    -11.223826
       4A    -11.211065     5A     -1.349864     6A     -1.052440
       7A     -0.921472     8A     -0.812755     9A     -0.668233
      10A     -0.637872    11A     -0.629971    12A     -0.564581
      13A     -0.533802    14A     -0.519088    15A     -0.486588
      16A     -0.470658    17A     -0.437455

  @DF-RHF Final Energy:  -193.19120737151309

   => Energetics <=

    Nuclear Repulsion Energy =            132.5943986229431744
    One-Electron Energy =                -524.8820085785669107
    Two-Electron Energy =                 199.0964025841106491
    Total Energy =                       -193.1912073715130873

  Dipole Moment: [D]
     X:     0.9720      Y:     0.3575      Z:     1.5253     Total:     1.8436

    SAPT Results
  --------------------------------------------------------------------------------------------------------
    Electrostatics                -34.71293826 [mEh]     -21.78269762 [kcal/mol]     -91.13880684 [kJ/mol]
      Elst10,r                    -34.71293826 [mEh]     -21.78269762 [kcal/mol]     -91.13880684 [kJ/mol]

    Exchange                       35.55957470 [mEh]      22.31397001 [kcal/mol]      93.36165051 [kJ/mol]
      Exch10                       35.55957470 [mEh]      22.31397001 [kcal/mol]      93.36165051 [kJ/mol]
      Exch10(S^2)                  35.12545572 [mEh]      22.04155623 [kcal/mol]      92.22187128 [kJ/mol]

    Induction                     -13.30492948 [mEh]      -8.34896930 [kcal/mol]     -34.93208754 [kJ/mol]
      Ind20,r                     -19.22603281 [mEh]     -12.06451773 [kcal/mol]     -50.47794220 [kJ/mol]
      Exch-Ind20,r                 11.40935857 [mEh]       7.15948059 [kcal/mol]      29.95526679 [kJ/mol]
      delta HF,r (2)               -5.48825524 [mEh]      -3.44393216 [kcal/mol]     -14.40941214 [kJ/mol]

    Dispersion                    -10.97067316 [mEh]      -6.88420134 [kcal/mol]     -28.80349840 [kJ/mol]
      Disp20                      -13.46466367 [mEh]      -8.44920402 [kcal/mol]     -35.35146960 [kJ/mol]
      Exch-Disp20                   2.49399052 [mEh]       1.56500268 [kcal/mol]       6.54797120 [kJ/mol]
      Disp20 (SS)                  -6.73233184 [mEh]      -4.22460201 [kcal/mol]     -17.67573480 [kJ/mol]
      Disp20 (OS)                  -6.73233184 [mEh]      -4.22460201 [kcal/mol]     -17.67573480 [kJ/mol]
      Exch-Disp20 (SS)              1.56612483 [mEh]       0.98275817 [kcal/mol]       4.11186017 [kJ/mol]
      Exch-Disp20 (OS)              0.92786569 [mEh]       0.58224451 [kcal/mol]       2.43611103 [kJ/mol]

  Total HF                        -12.45829304 [mEh]      -7.81769691 [kcal/mol]     -32.70924387 [kJ/mol]
  Total SAPT0                     -23.42896620 [mEh]     -14.70189825 [kcal/mol]     -61.51274228 [kJ/mol]

  Special recipe for scaled SAPT0 (see Manual):
    Electrostatics sSAPT0         -34.71293826 [mEh]     -21.78269762 [kcal/mol]     -91.13880684 [kJ/mol]
    Exchange sSAPT0                35.55957470 [mEh]      22.31397001 [kcal/mol]      93.36165051 [kJ/mol]
    Induction sSAPT0              -12.87665152 [mEh]      -8.08022082 [kcal/mol]     -33.80764392 [kJ/mol]
    Dispersion sSAPT0             -10.87705517 [mEh]      -6.82545517 [kcal/mol]     -28.55770442 [kJ/mol]
  Total sSAPT0                    -22.90707025 [mEh]     -14.37440360 [kcal/mol]     -60.14250466 [kJ/mol]
  --------------------------------------------------------------------------------------------------------

*** Psi4 exiting successfully. Buy a developer a beer!
