                               Psi4 1.3.2 release

  ==> Input File <==

--------------------------------------------------------------------------
# Any line starting with the # character is a comment line
#! Sample  computation

memory 22 gb

molecule Dimer {
0 1
 C  3.638015    0.524933   -0.746054
 C  2.842124    0.198901    0.504883
 C  1.441455   -0.257357    0.203390
 O  0.978035   -0.361051   -0.922583
 O  0.753346   -0.537606    1.315987
 H  3.156933    1.317648   -1.315088
 H  4.642911    0.848882   -0.481362
 H  3.713728   -0.345702   -1.393944
 H  2.763970    1.060123    1.170704
 H  3.316898   -0.588803    1.092349
 H -0.155162   -0.820996    1.042081

 --
0 1
 C -2.792228    0.713548   -0.598324
 C -2.792860   -0.766477   -0.260843
 H -2.201054    0.869781   -1.504857
 H -3.818445    1.000170   -0.841392
 O -1.481920   -1.278285   -0.004296
 H -3.361748   -0.948729    0.650963
 H -3.254694   -1.340842   -1.067568
 H -0.895499   -1.039678   -0.743777
 C -2.258597    1.583740    0.531997
 H -1.220862    1.344319    0.758237
 H -2.307267    2.639559    0.269197
 H -2.842853    1.436062    1.441297

units angstrom

no_reorient
symmetry c1
}

set globals{
  basis jun-cc-pvtz
}

energy('sapt0')

--------------------------------------------------------------------------

  //              Dimer HF             //
    Molecular point group: c1
  Charge       = 0
  Multiplicity = 1
  Basis Set: JUN-CC-PVTZ
    Blend: JUN-CC-PVTZ
  Basis Set: (JUN-CC-PVTZ AUX)
    Blend: JUN-CC-PVTZ-JKFIT
  @DF-RHF Final Energy:  -460.15360024581582
    Total Energy =                       -460.1536002458158237
  //            Monomer A HF           //
    Molecular point group: c1
  Multiplicity = 1
  Basis Set: JUN-CC-PVTZ
    Blend: JUN-CC-PVTZ
  Basis Set: (JUN-CC-PVTZ AUX)
    Blend: JUN-CC-PVTZ-JKFIT
  @DF-RHF Final Energy:  -266.95091300897809
    Total Energy =                       -266.9509130089780911
  //            Monomer B HF           //
    Molecular point group: c1

    Geometry (in Angstrom), charge = 0, multiplicity = 1:

       Center              X                  Y                   Z               Mass
    ------------   -----------------  -----------------  -----------------  -----------------
      Gh(C)           3.619799480635     0.565040951545    -0.752869752197    12.000000000000
      Gh(C)           2.823908480635     0.239008951545     0.498067247803    12.000000000000
      Gh(C)           1.423239480635    -0.217249048455     0.196574247803    12.000000000000
      Gh(O)           0.959819480635    -0.320943048455    -0.929398752197    15.994914619570
      Gh(O)           0.735130480635    -0.497498048455     1.309171247803    15.994914619570
      Gh(H)           3.138717480635     1.357755951545    -1.321903752197     1.007825032230
      Gh(H)           4.624695480635     0.888989951545    -0.488177752197     1.007825032230
      Gh(H)           3.695512480635    -0.305594048455    -1.400759752197     1.007825032230
      Gh(H)           2.745754480635     1.100230951545     1.163888247803     1.007825032230
      Gh(H)           3.298682480635    -0.548695048455     1.085533247803     1.007825032230
      Gh(H)          -0.173377519365    -0.780888048455     1.035265247803     1.007825032230
         C           -2.810443519365     0.753655951545    -0.605139752197    12.000000000000
         C           -2.811075519365    -0.726369048455    -0.267658752197    12.000000000000
         H           -2.219269519365     0.909888951545    -1.511672752197     1.007825032230
         H           -3.836660519365     1.040277951545    -0.848207752197     1.007825032230
         O           -1.500135519365    -1.238177048455    -0.011111752197    15.994914619570
         H           -3.379963519365    -0.908621048455     0.644147247803     1.007825032230
         H           -3.272909519365    -1.300734048455    -1.074383752197     1.007825032230
         H           -0.913714519365    -0.999570048455    -0.750592752197     1.007825032230
         C           -2.276812519365     1.623847951545     0.525181247803    12.000000000000
         H           -1.239077519365     1.384426951545     0.751421247803     1.007825032230
         H           -2.325482519365     2.679666951545     0.262381247803     1.007825032230
         H           -2.861068519365     1.476169951545     1.434481247803     1.007825032230

  Charge       = 0
  Multiplicity = 1
  Basis Set: JUN-CC-PVTZ
    Blend: JUN-CC-PVTZ
  Basis Set: (JUN-CC-PVTZ AUX)
    Blend: JUN-CC-PVTZ-JKFIT

    Orbital Energies [Eh]
    ---------------------

    Doubly Occupied:

       1A    -20.553926     2A    -11.271304     3A    -11.224081
       4A    -11.211379     5A     -1.350155     6A     -1.052458
       7A     -0.921461     8A     -0.812884     9A     -0.667438
      10A     -0.638015    11A     -0.630804    12A     -0.564974
      13A     -0.534501    14A     -0.518800    15A     -0.486890
      16A     -0.470538    17A     -0.437276

  @DF-RHF Final Energy:  -193.19110565279328

   => Energetics <=

    Nuclear Repulsion Energy =            132.5949081918159038
    One-Electron Energy =                -524.8782589322270269
    Two-Electron Energy =                 199.0922450876178686
    Total Energy =                       -193.1911056527932828

  Dipole Moment: [D]
     X:    -0.5649      Y:     1.0887      Z:    -1.3839     Total:     1.8492

    SAPT Results
  --------------------------------------------------------------------------------------------------------
    Electrostatics                -35.37585483 [mEh]     -22.19868405 [kcal/mol]     -92.87929405 [kJ/mol]
      Elst10,r                    -35.37585483 [mEh]     -22.19868405 [kcal/mol]     -92.87929405 [kJ/mol]

    Exchange                       36.94797403 [mEh]      23.18520374 [kcal/mol]      97.00689246 [kJ/mol]
      Exch10                       36.94797403 [mEh]      23.18520374 [kcal/mol]      97.00689246 [kJ/mol]
      Exch10(S^2)                  36.51132366 [mEh]      22.91120150 [kcal/mol]      95.86046706 [kJ/mol]

    Induction                     -13.15370325 [mEh]      -8.25407340 [kcal/mol]     -34.53504312 [kJ/mol]
      Ind20,r                     -19.47892185 [mEh]     -12.22320800 [kcal/mol]     -51.14190227 [kJ/mol]
      Exch-Ind20,r                 11.75946966 [mEh]       7.37917862 [kcal/mol]      30.87448335 [kJ/mol]
      delta HF,r (2)               -5.43425107 [mEh]      -3.41004403 [kcal/mol]     -14.26762421 [kJ/mol]

    Dispersion                    -11.83679578 [mEh]      -7.42770149 [kcal/mol]     -31.07750305 [kJ/mol]
      Disp20                      -14.51197351 [mEh]      -9.10640086 [kcal/mol]     -38.10118120 [kJ/mol]
      Exch-Disp20                   2.67517773 [mEh]       1.67869937 [kcal/mol]       7.02367815 [kJ/mol]
      Disp20 (SS)                  -7.25598675 [mEh]      -4.55320043 [kcal/mol]     -19.05059060 [kJ/mol]
      Disp20 (OS)                  -7.25598675 [mEh]      -4.55320043 [kcal/mol]     -19.05059060 [kJ/mol]
      Exch-Disp20 (SS)              1.67892118 [mEh]       1.05353895 [kcal/mol]       4.40800695 [kJ/mol]
      Exch-Disp20 (OS)              0.99625655 [mEh]       0.62516042 [kcal/mol]       2.61567120 [kJ/mol]

  Total HF                        -11.58158404 [mEh]      -7.26755371 [kcal/mol]     -30.40744472 [kJ/mol]
  Total SAPT0                     -23.41837983 [mEh]     -14.69525520 [kcal/mol]     -61.48494777 [kJ/mol]

  Special recipe for scaled SAPT0 (see Manual):
    Electrostatics sSAPT0         -35.37585483 [mEh]     -22.19868405 [kcal/mol]     -92.87929405 [kJ/mol]
    Exchange sSAPT0                36.94797403 [mEh]      23.18520374 [kcal/mol]      97.00689246 [kJ/mol]
    Induction sSAPT0              -12.72673187 [mEh]      -7.98614482 [kcal/mol]     -33.41402993 [kJ/mol]
    Dispersion sSAPT0             -11.73966348 [mEh]      -7.36675006 [kcal/mol]     -30.82248223 [kJ/mol]
  Total sSAPT0                    -22.89427615 [mEh]     -14.36637518 [kcal/mol]     -60.10891376 [kJ/mol]
  --------------------------------------------------------------------------------------------------------

*** Psi4 exiting successfully. Buy a developer a beer!
