                               Psi4 1.3.2 release

  ==> Input File <==

--------------------------------------------------------------------------
# Any line starting with the # character is a comment line
#! Sample  computation

memory 22 gb

molecule Dimer {
0 1
 C -1.902302   -0.064592    0.100670
 O -1.332267   -0.533028    1.074448
 O -1.360214   -0.014838   -1.121290
 H -0.454002   -0.410509   -1.061999
 C -3.281334    0.520740    0.128793
 H -3.683064    0.465859    1.133992
 H -3.242443    1.554985   -0.207749
 H -3.918970   -0.025670   -0.563506

 --
0 1
 C   2.473470    0.408352    0.597194
 C   2.302985   -0.894278   -0.163241
 H   2.001678    0.309924    1.578697
 H   3.541859    0.551528    0.777144
 O   0.930758   -1.232292   -0.385625
 H   2.749497   -0.817591   -1.154668
 H 	 2.796167   -1.712492    0.367015

H 	 0.453765   -1.208407    0.462540

C 	 1.900608    1.610552   -0.141790

H 	 0.826984    1.507545   -0.290417

H 	 2.072969    2.530521    0.415058

H   2.366312    1.718430   -1.122328

units angstrom

no_reorient
symmetry c1
}

set globals{
  basis jun-cc-pvtz
}

energy('sapt0')

--------------------------------------------------------------------------

  //              Dimer HF             //
    Molecular point group: c1
  Charge       = 0
  Multiplicity = 1
  Basis Set: JUN-CC-PVTZ
    Blend: JUN-CC-PVTZ
  Basis Set: (JUN-CC-PVTZ AUX)
    Blend: JUN-CC-PVTZ-JKFIT
  @DF-RHF Final Energy:  -421.10552219685792
    Total Energy =                       -421.1055221968579190
  //            Monomer A HF           //
    Molecular point group: c1
  Multiplicity = 1
  Basis Set: JUN-CC-PVTZ
    Blend: JUN-CC-PVTZ
  Basis Set: (JUN-CC-PVTZ AUX)
    Blend: JUN-CC-PVTZ-JKFIT
  @DF-RHF Final Energy:  -227.90262269475642
    Total Energy =                       -227.9026226947564169
  //            Monomer B HF           //
    Molecular point group: c1

    Geometry (in Angstrom), charge = 0, multiplicity = 1:

       Center              X                  Y                   Z               Mass
    ------------   -----------------  -----------------  -----------------  -----------------
      Gh(C)          -1.863130911870    -0.022909881215     0.103346328596    12.000000000000
      Gh(O)          -1.293095911870    -0.491345881215     1.077124328596    15.994914619570
      Gh(O)          -1.321042911870     0.026844118785    -1.118613671404    15.994914619570
      Gh(H)          -0.414830911870    -0.368826881215    -1.059322671404     1.007825032230
      Gh(C)          -3.242162911870     0.562422118785     0.131469328596    12.000000000000
      Gh(H)          -3.643892911870     0.507541118785     1.136668328596     1.007825032230
      Gh(H)          -3.203271911870     1.596667118785    -0.205072671404     1.007825032230
      Gh(H)          -3.879798911870     0.016012118785    -0.560829671404     1.007825032230
         C            2.512641088130     0.450034118785     0.599870328596    12.000000000000
         C            2.342156088130    -0.852595881215    -0.160564671404    12.000000000000
         H            2.040849088130     0.351606118785     1.581373328596     1.007825032230
         H            3.581030088130     0.593210118785     0.779820328596     1.007825032230
         O            0.969929088130    -1.190609881215    -0.382948671404    15.994914619570
         H            2.788668088130    -0.775908881215    -1.151991671404     1.007825032230
         H            2.835338088130    -1.670809881215     0.369691328596     1.007825032230
         H            0.492936088130    -1.166724881215     0.465216328596     1.007825032230
         C            1.939779088130     1.652234118785    -0.139113671404    12.000000000000
         H            0.866155088130     1.549227118785    -0.287740671404     1.007825032230
         H            2.112140088130     2.572203118785     0.417734328596     1.007825032230
         H            2.405483088130     1.760112118785    -1.119651671404     1.007825032230

  Charge       = 0
  Multiplicity = 1
  Basis Set: JUN-CC-PVTZ
    Blend: JUN-CC-PVTZ
  Basis Set: (JUN-CC-PVTZ AUX)
    Blend: JUN-CC-PVTZ-JKFIT

    Orbital Energies [Eh]
    ---------------------

    Doubly Occupied:

       1A    -20.553899     2A    -11.271310     3A    -11.224005
       4A    -11.211296     5A     -1.350100     6A     -1.052438
       7A     -0.921433     8A     -0.812837     9A     -0.667623
      10A     -0.638002    11A     -0.630586    12A     -0.564909
      13A     -0.534317    14A     -0.518883    15A     -0.486830
      16A     -0.470537    17A     -0.437274

  @DF-RHF Final Energy:  -193.19111867051450

   => Energetics <=

    Nuclear Repulsion Energy =            132.5909562436922045
    One-Electron Energy =                -524.8715902290027771
    Two-Electron Energy =                 199.0895153147961025
    Total Energy =                       -193.1911186705144985

  Dipole Moment: [D]
     X:     0.8100      Y:     0.5681      Z:     1.5601     Total:     1.8474

    SAPT Results
  --------------------------------------------------------------------------------------------------------
    Electrostatics                -35.46571965 [mEh]     -22.25507508 [kcal/mol]     -93.11523412 [kJ/mol]
      Elst10,r                    -35.46571965 [mEh]     -22.25507508 [kcal/mol]     -93.11523412 [kJ/mol]

    Exchange                       36.94319319 [mEh]      23.18220372 [kcal/mol]      96.99434037 [kJ/mol]
      Exch10                       36.94319319 [mEh]      23.18220372 [kcal/mol]      96.99434037 [kJ/mol]
      Exch10(S^2)                  36.50480920 [mEh]      22.90711361 [kcal/mol]      95.84336335 [kJ/mol]

    Induction                     -13.25830513 [mEh]      -8.31971207 [kcal/mol]     -34.80967531 [kJ/mol]
      Ind20,r                     -19.52977738 [mEh]     -12.25512033 [kcal/mol]     -51.27542345 [kJ/mol]
      Exch-Ind20,r                 11.73984715 [mEh]       7.36686531 [kcal/mol]      30.82296445 [kJ/mol]
      delta HF,r (2)               -5.46837489 [mEh]      -3.43145705 [kcal/mol]     -14.35721631 [kJ/mol]

    Dispersion                    -11.67577660 [mEh]      -7.32666043 [kcal/mol]     -30.65474724 [kJ/mol]
      Disp20                      -14.33064031 [mEh]      -8.99261256 [kcal/mol]     -37.62509095 [kJ/mol]
      Exch-Disp20                   2.65486371 [mEh]       1.66595213 [kcal/mol]       6.97034371 [kJ/mol]
      Disp20 (SS)                  -7.16532016 [mEh]      -4.49630628 [kcal/mol]     -18.81254548 [kJ/mol]
      Disp20 (OS)                  -7.16532016 [mEh]      -4.49630628 [kcal/mol]     -18.81254548 [kJ/mol]
      Exch-Disp20 (SS)              1.66643601 [mEh]       1.04570438 [kcal/mol]       4.37522714 [kJ/mol]
      Exch-Disp20 (OS)              0.98842770 [mEh]       0.62024775 [kcal/mol]       2.59511657 [kJ/mol]

  Total HF                        -11.78083159 [mEh]      -7.39258343 [kcal/mol]     -30.93056907 [kJ/mol]
  Total SAPT0                     -23.45660819 [mEh]     -14.71924386 [kcal/mol]     -61.58531631 [kJ/mol]

  Special recipe for scaled SAPT0 (see Manual):
    Electrostatics sSAPT0         -35.46571965 [mEh]     -22.25507508 [kcal/mol]     -93.11523412 [kJ/mol]
    Exchange sSAPT0                36.94319319 [mEh]      23.18220372 [kcal/mol]      96.99434037 [kJ/mol]
    Induction sSAPT0              -12.83025633 [mEh]      -8.05110740 [kcal/mol]     -33.68583336 [kJ/mol]
    Dispersion sSAPT0             -11.57897711 [mEh]      -7.26591783 [kcal/mol]     -30.40060022 [kJ/mol]
  Total sSAPT0                    -22.93175990 [mEh]     -14.38989659 [kcal/mol]     -60.20732733 [kJ/mol]
  --------------------------------------------------------------------------------------------------------

*** Psi4 exiting successfully. Buy a developer a beer!
