                               Psi4 1.3.2 release

  ==> Input File <==

--------------------------------------------------------------------------
# Any line starting with the # character is a comment line
#! Sample  computation

memory 22 gb

molecule Dimer {
0 1
 C -3.961862    0.622538    0.356414
 C -2.553353    0.159079    0.087896
 O -1.611251    0.552107    0.781361
 N -2.385244   -0.700140   -0.942145
 H -4.692950    0.186323   -0.320065
 H -4.218502    0.366393    1.381994
 H -3.989003    1.706611    0.268941
 H -1.447822   -1.024495   -1.154384
 H -3.163208   -0.991807   -1.502637

 --
0 1
 C  2.418439   -0.451473    0.928358
 C  1.478966   -1.383446    0.178486
 H  1.824447    0.200807    1.577022
 H  3.027688   -1.074957    1.589656
 O  0.463155   -0.703839   -0.554650
 H  2.039984   -1.966588   -0.553944
 H  1.024060   -2.086038    0.885037
 H -0.058430   -0.166761    0.075859
 C  3.341166    0.390303    0.048529
 H  4.111035    0.833487    0.684640
 H  3.863865   -0.271746   -0.648117
 C  2.639644    1.502463   -0.725719
 H  2.092833    2.155605   -0.043577

H  3.364247    2.113241   -1.264847
 H  1.925236    1.097979   -1.438035

units angstrom

no_reorient
symmetry c1
}

set globals{
  basis jun-cc-pvtz
}

energy('sapt0')

--------------------------------------------------------------------------

  //              Dimer HF             //
    Molecular point group: c1
  Charge       = 0
  Multiplicity = 1
  Basis Set: JUN-CC-PVTZ
    Blend: JUN-CC-PVTZ
  Basis Set: (JUN-CC-PVTZ AUX)
    Blend: JUN-CC-PVTZ-JKFIT
  @DF-RHF Final Energy:  -440.30780757357269
    Total Energy =                       -440.3078075735726316
  //            Monomer A HF           //
    Molecular point group: c1
  Multiplicity = 1
  Basis Set: JUN-CC-PVTZ
    Blend: JUN-CC-PVTZ
  Basis Set: (JUN-CC-PVTZ AUX)
    Blend: JUN-CC-PVTZ-JKFIT
  @DF-RHF Final Energy:  -208.06110613332203
    Total Energy =                       -208.0611061333220277
  //            Monomer B HF           //
    Molecular point group: c1

    Geometry (in Angstrom), charge = 0, multiplicity = 1:

       Center              X                  Y                   Z               Mass
    ------------   -----------------  -----------------  -----------------  -----------------
      Gh(C)          -3.919338343037     0.630583921183     0.352997365358    12.000000000000
      Gh(C)          -2.510829343037     0.167124921183     0.084479365358    12.000000000000
      Gh(O)          -1.568727343037     0.560152921183     0.777944365358    15.994914619570
      Gh(N)          -2.342720343037    -0.692094078817    -0.945561634642    14.003074004430
      Gh(H)          -4.650426343037     0.194368921183    -0.323481634642     1.007825032230
      Gh(H)          -4.175978343037     0.374438921183     1.378577365358     1.007825032230
      Gh(H)          -3.946479343037     1.714656921183     0.265524365358     1.007825032230
      Gh(H)          -1.405298343037    -1.016449078817    -1.157800634642     1.007825032230
      Gh(H)          -3.120684343037    -0.983761078817    -1.506053634642     1.007825032230
         C            2.460962656963    -0.443427078817     0.924941365358    12.000000000000
         C            1.521489656963    -1.375400078817     0.175069365358    12.000000000000
         H            1.866970656963     0.208852921183     1.573605365358     1.007825032230
         H            3.070211656963    -1.066911078817     1.586239365358     1.007825032230
         O            0.505678656963    -0.695793078817    -0.558066634642    15.994914619570
         H            2.082507656963    -1.958542078817    -0.557360634642     1.007825032230
         H            1.066583656963    -2.077992078817     0.881620365358     1.007825032230
         H           -0.015906343037    -0.158715078817     0.072442365358     1.007825032230
         C            3.383689656963     0.398348921183     0.045112365358    12.000000000000
         H            4.153558656963     0.841532921183     0.681223365358     1.007825032230
         H            3.906388656963    -0.263700078817    -0.651533634642     1.007825032230
         C            2.682167656963     1.510508921183    -0.729135634642    12.000000000000
         H            2.135356656963     2.163650921183    -0.046993634642     1.007825032230
         H            3.406770656963     2.121286921183    -1.268263634642     1.007825032230
         H            1.967759656963     1.106024921183    -1.441451634642     1.007825032230

  Charge       = 0
  Multiplicity = 1
  Basis Set: JUN-CC-PVTZ
    Blend: JUN-CC-PVTZ
  Basis Set: (JUN-CC-PVTZ AUX)
    Blend: JUN-CC-PVTZ-JKFIT

    Orbital Energies [Eh]
    ---------------------

    Doubly Occupied:

       1A    -20.555337     2A    -11.271727     3A    -11.220909
       4A    -11.217000     5A    -11.202071     6A     -1.352514
       7A     -1.068400     8A     -0.972565     9A     -0.866083
      10A     -0.790906    11A     -0.674231    12A     -0.639515
      13A     -0.627563    14A     -0.581409    15A     -0.560810
      16A     -0.535666    17A     -0.503184    18A     -0.495654
      19A     -0.473559    20A     -0.459782    21A     -0.424676

  @DF-RHF Final Energy:  -232.23542742478514

   => Energetics <=

    Nuclear Repulsion Energy =            192.3087848916904363
    One-Electron Energy =                -696.1012987797452070
    Two-Electron Energy =                 271.5570864632696271
    Total Energy =                       -232.2354274247851436

  Dipole Moment: [D]
     X:     0.4042      Y:     0.0874      Z:     1.6997     Total:     1.7493

    SAPT Results
  --------------------------------------------------------------------------------------------------------
    Electrostatics                -30.99009238 [mEh]     -19.44657656 [kcal/mol]     -81.36447632 [kJ/mol]
      Elst10,r                    -30.99009238 [mEh]     -19.44657656 [kcal/mol]     -81.36447632 [kJ/mol]

    Exchange                       30.10340222 [mEh]      18.89017009 [kcal/mol]      79.03647164 [kJ/mol]
      Exch10                       30.10340222 [mEh]      18.89017009 [kcal/mol]      79.03647164 [kJ/mol]
      Exch10(S^2)                  29.79702895 [mEh]      18.69791796 [kcal/mol]      78.23208874 [kJ/mol]

    Induction                     -10.38732531 [mEh]      -6.51814504 [kcal/mol]     -27.27191884 [kJ/mol]
      Ind20,r                     -15.40995938 [mEh]      -9.66989550 [kcal/mol]     -40.45884278 [kJ/mol]
      Exch-Ind20,r                  9.20219816 [mEh]       5.77446652 [kcal/mol]      24.16036794 [kJ/mol]
      delta HF,r (2)               -4.17956409 [mEh]      -2.62271606 [kcal/mol]     -10.97344399 [kJ/mol]

    Dispersion                     -9.75033324 [mEh]      -6.11842648 [kcal/mol]     -25.59949639 [kJ/mol]
      Disp20                      -12.04239869 [mEh]      -7.55671927 [kcal/mol]     -31.61731341 [kJ/mol]
      Exch-Disp20                   2.29206545 [mEh]       1.43829279 [kcal/mol]       6.01781702 [kJ/mol]
      Disp20 (SS)                  -6.02119935 [mEh]      -3.77835963 [kcal/mol]     -15.80865671 [kJ/mol]
      Disp20 (OS)                  -6.02119935 [mEh]      -3.77835963 [kcal/mol]     -15.80865671 [kJ/mol]
      Exch-Disp20 (SS)              1.43045212 [mEh]       0.89762226 [kcal/mol]       3.75565152 [kJ/mol]
      Exch-Disp20 (OS)              0.86161333 [mEh]       0.54067053 [kcal/mol]       2.26216550 [kJ/mol]

  Total HF                        -11.27401547 [mEh]      -7.07455151 [kcal/mol]     -29.59992353 [kJ/mol]
  Total SAPT0                     -21.02434870 [mEh]     -13.19297799 [kcal/mol]     -55.19941992 [kJ/mol]

  Special recipe for scaled SAPT0 (see Manual):
    Electrostatics sSAPT0         -30.99009238 [mEh]     -19.44657656 [kcal/mol]     -81.36447632 [kJ/mol]
    Exchange sSAPT0                30.10340222 [mEh]      18.89017009 [kcal/mol]      79.03647164 [kJ/mol]
    Induction sSAPT0              -10.10054554 [mEh]      -6.33818802 [kcal/mol]     -26.51897867 [kJ/mol]
    Dispersion sSAPT0              -9.67890270 [mEh]      -6.07360314 [kcal/mol]     -25.41195553 [kJ/mol]
  Total sSAPT0                    -20.66613840 [mEh]     -12.96819763 [kcal/mol]     -54.25893889 [kJ/mol]
  --------------------------------------------------------------------------------------------------------

*** Psi4 exiting successfully. Buy a developer a beer!
