                               Psi4 1.3.2 release

  ==> Input File <==

--------------------------------------------------------------------------
# Any line starting with the # character is a comment line
#! Sample  computation

memory 22 gb

molecule Dimer {
0 1
 C -2.634101    0.254117    0.418464
 O -1.867176   -0.238491    1.241773
 N -2.452571    0.228958   -0.915713
 H -3.123806    0.661924   -1.522530
 H -1.618019   -0.203678   -1.295061
 H -3.555312    0.766110    0.725347

 --
0 1
 C  2.044786   -0.459268    0.616723
 C  1.388812   -1.437069   -0.346751
 H  1.428724   -0.391148    1.519627
 H  2.997830   -0.898656    0.925208
 O  0.015725   -1.153275   -0.604123
 H  1.891200   -1.406228   -1.315211
 H  1.485885   -2.454462    0.044607
 H -0.437922   -1.005979    0.247349
 C  2.304417    0.939277    0.060540
 H  2.907535    1.487981    0.787647
 H  2.916990    0.852317   -0.841514
 C  1.047292    1.747047   -0.248669
 H  0.389095    1.782994    0.621051

H  1.304853    2.770703   -0.521716
 H  0.485315    1.304928   -1.067859

units angstrom

no_reorient
symmetry c1
}

set globals{
  basis jun-cc-pvtz
}

energy('sapt0')

--------------------------------------------------------------------------

  //              Dimer HF             //
    Molecular point group: c1
  Charge       = 0
  Multiplicity = 1
  Basis Set: JUN-CC-PVTZ
    Blend: JUN-CC-PVTZ
  Basis Set: (JUN-CC-PVTZ AUX)
    Blend: JUN-CC-PVTZ-JKFIT
  @DF-RHF Final Energy:  -401.24822093794285
    Total Energy =                       -401.2482209379428468
  //            Monomer A HF           //
    Molecular point group: c1
  Multiplicity = 1
  Basis Set: JUN-CC-PVTZ
    Blend: JUN-CC-PVTZ
  Basis Set: (JUN-CC-PVTZ AUX)
    Blend: JUN-CC-PVTZ-JKFIT
  @DF-RHF Final Energy:  -169.00293578413914
    Total Energy =                       -169.0029357841391402
  //            Monomer B HF           //
    Molecular point group: c1

    Geometry (in Angstrom), charge = 0, multiplicity = 1:

       Center              X                  Y                   Z               Mass
    ------------   -----------------  -----------------  -----------------  -----------------
      Gh(C)          -2.575196980124     0.281267222446     0.404410123598    12.000000000000
      Gh(O)          -1.808271980124    -0.211340777554     1.227719123598    15.994914619570
      Gh(N)          -2.393666980124     0.256108222446    -0.929766876402    14.003074004430
      Gh(H)          -3.064901980124     0.689074222446    -1.536583876402     1.007825032230
      Gh(H)          -1.559114980124    -0.176527777554    -1.309114876402     1.007825032230
      Gh(H)          -3.496407980124     0.793260222446     0.711293123598     1.007825032230
         C            2.103690019876    -0.432117777554     0.602669123598    12.000000000000
         C            1.447716019876    -1.409918777554    -0.360804876402    12.000000000000
         H            1.487628019876    -0.363997777554     1.505573123598     1.007825032230
         H            3.056734019876    -0.871505777554     0.911154123598     1.007825032230
         O            0.074629019876    -1.126124777554    -0.618176876402    15.994914619570
         H            1.950104019876    -1.379077777554    -1.329264876402     1.007825032230
         H            1.544789019876    -2.427311777554     0.030553123598     1.007825032230
         H           -0.379017980124    -0.978828777554     0.233295123598     1.007825032230
         C            2.363321019876     0.966427222446     0.046486123598    12.000000000000
         H            2.966439019876     1.515131222446     0.773593123598     1.007825032230
         H            2.975894019876     0.879467222446    -0.855567876402     1.007825032230
         C            1.106196019876     1.774197222446    -0.262722876402    12.000000000000
         H            0.447999019876     1.810144222446     0.606997123598     1.007825032230
         H            1.363757019876     2.797853222446    -0.535769876402     1.007825032230
         H            0.544219019876     1.332078222446    -1.081912876402     1.007825032230

  Charge       = 0
  Multiplicity = 1
  Basis Set: JUN-CC-PVTZ
    Blend: JUN-CC-PVTZ
  Basis Set: (JUN-CC-PVTZ AUX)
    Blend: JUN-CC-PVTZ-JKFIT

    Orbital Energies [Eh]
    ---------------------

    Doubly Occupied:

       1A    -20.553799     2A    -11.271452     3A    -11.222588
       4A    -11.218510     5A    -11.204325     6A     -1.351780
       7A     -1.069765     8A     -0.973296     9A     -0.868514
      10A     -0.792469    11A     -0.668565    12A     -0.643145
      13A     -0.628254    14A     -0.585132    15A     -0.563069
      16A     -0.535341    17A     -0.502433    18A     -0.497117
      19A     -0.474237    20A     -0.460431    21A     -0.425514

  @DF-RHF Final Energy:  -232.23538784699736

   => Energetics <=

    Nuclear Repulsion Energy =            192.4113377644995353
    One-Electron Energy =                -696.2739809366307782
    Two-Electron Energy =                 271.6272553251338877
    Total Energy =                       -232.2353878469973552

  Dipole Moment: [D]
     X:     0.9136      Y:     0.0190      Z:     1.5304     Total:     1.7825

    SAPT Results
  --------------------------------------------------------------------------------------------------------
    Electrostatics                -28.38206166 [mEh]     -17.81001258 [kcal/mol]     -74.51709261 [kJ/mol]
      Elst10,r                    -28.38206166 [mEh]     -17.81001258 [kcal/mol]     -74.51709261 [kJ/mol]

    Exchange                       27.76876521 [mEh]      17.42516325 [kcal/mol]      72.90688302 [kJ/mol]
      Exch10                       27.76876521 [mEh]      17.42516325 [kcal/mol]      72.90688302 [kJ/mol]
      Exch10(S^2)                  27.53746643 [mEh]      17.28002107 [kcal/mol]      72.29960814 [kJ/mol]

    Induction                      -9.28401036 [mEh]      -5.82580446 [kcal/mol]     -24.37516584 [kJ/mol]
      Ind20,r                     -13.67434762 [mEh]      -8.58078268 [kcal/mol]     -35.90199472 [kJ/mol]
      Exch-Ind20,r                  8.04877639 [mEh]       5.05068343 [kcal/mol]      21.13205949 [kJ/mol]
      delta HF,r (2)               -3.65843913 [mEh]      -2.29570521 [kcal/mol]      -9.60523061 [kJ/mol]

    Dispersion                    -10.87465370 [mEh]      -6.82394822 [kcal/mol]     -28.55139936 [kJ/mol]
      Disp20                      -13.05574261 [mEh]      -8.19260217 [kcal/mol]     -34.27784750 [kJ/mol]
      Exch-Disp20                   2.18108891 [mEh]       1.36865395 [kcal/mol]       5.72644814 [kJ/mol]
      Disp20 (SS)                  -6.52787130 [mEh]      -4.09630109 [kcal/mol]     -17.13892375 [kJ/mol]
      Disp20 (OS)                  -6.52787130 [mEh]      -4.09630109 [kcal/mol]     -17.13892375 [kJ/mol]
      Exch-Disp20 (SS)              1.36381687 [mEh]       0.85580801 [kcal/mol]       3.58070069 [kJ/mol]
      Exch-Disp20 (OS)              0.81727204 [mEh]       0.51284595 [kcal/mol]       2.14574745 [kJ/mol]

  Total HF                         -9.89730681 [mEh]      -6.21065379 [kcal/mol]     -25.98537544 [kJ/mol]
  Total SAPT0                     -20.77196051 [mEh]     -13.03460201 [kcal/mol]     -54.53677480 [kJ/mol]

  Special recipe for scaled SAPT0 (see Manual):
    Electrostatics sSAPT0         -28.38206166 [mEh]     -17.81001258 [kcal/mol]     -74.51709261 [kJ/mol]
    Exchange sSAPT0                27.76876521 [mEh]      17.42516325 [kcal/mol]      72.90688302 [kJ/mol]
    Induction sSAPT0               -9.07948687 [mEh]      -5.69746403 [kcal/mol]     -23.83818949 [kJ/mol]
    Dispersion sSAPT0             -10.81923112 [mEh]      -6.78917003 [kcal/mol]     -28.40588740 [kJ/mol]
  Total sSAPT0                    -20.51201444 [mEh]     -12.87148339 [kcal/mol]     -53.85428649 [kJ/mol]
  --------------------------------------------------------------------------------------------------------

*** Psi4 exiting successfully. Buy a developer a beer!
