                               Psi4 1.3.2 release

  ==> Input File <==

--------------------------------------------------------------------------
# Any line starting with the # character is a comment line
#! Sample  computation

memory 22 gb

molecule Dimer {
0 1
 C 3.103552    0.557627    0.182949
 C 1.760161   -0.132491    0.276757
 O 1.109612   -0.421154   -0.731549
 N 1.312581   -0.392062    1.526141
 H 0.377871   -0.764384    1.644407
 H 1.849989   -0.120265    2.327959
 C 3.875454    0.129295   -1.056465
 H 3.278217    0.303203   -1.947956
 H 4.805940    0.688081   -1.139632
 H 4.114044   -0.932425   -1.015206
 H 2.899842    1.630854    0.146509
 H 3.680708    0.374077    1.090466

 --
0 1
 C -2.733648   -0.106966   -0.969415
 C -2.477788   -1.332614   -0.104365
 H -1.908326   -0.003192   -1.681728
 H -3.630666   -0.310058   -1.561701
 O -1.188349   -1.348275    0.500860
 H -3.199402   -1.372638    0.713836
 H -2.611670   -2.236202   -0.707640
 H -0.522118   -1.129476   -0.180456
 C -2.931048    1.204631   -0.212004
 H -3.258385    1.964251   -0.925834
 H -3.751475    1.080924    0.500880
 C -1.690631    1.713462    0.516788
 H -0.841725    1.773822   -0.166593

H -1.866705    2.707267    0.929584
 H -1.410613    1.048366    1.330150

units angstrom

no_reorient
symmetry c1
}

set globals{
  basis jun-cc-pvtz
}

energy('sapt0')

--------------------------------------------------------------------------

  //              Dimer HF             //
    Molecular point group: c1
  Charge       = 0
  Multiplicity = 1
  Basis Set: JUN-CC-PVTZ
    Blend: JUN-CC-PVTZ
  Basis Set: (JUN-CC-PVTZ AUX)
    Blend: JUN-CC-PVTZ-JKFIT
  @DF-RHF Final Energy:  -479.35406533855883
    Total Energy =                       -479.3540653385588257
  //            Monomer A HF           //
    Molecular point group: c1
  Multiplicity = 1
  Basis Set: JUN-CC-PVTZ
    Blend: JUN-CC-PVTZ
  Basis Set: (JUN-CC-PVTZ AUX)
    Blend: JUN-CC-PVTZ-JKFIT
  @DF-RHF Final Energy:  -247.10901636597001
    Total Energy =                       -247.1090163659699783
  //            Monomer B HF           //
    Molecular point group: c1

    Geometry (in Angstrom), charge = 0, multiplicity = 1:

       Center              X                  Y                   Z               Mass
    ------------   -----------------  -----------------  -----------------  -----------------
      Gh(C)           3.090071572176     0.589284309580     0.178573371807    12.000000000000
      Gh(C)           1.746680572176    -0.100833690420     0.272381371807    12.000000000000
      Gh(O)           1.096131572176    -0.389496690420    -0.735924628193    15.994914619570
      Gh(N)           1.299100572176    -0.360404690420     1.521765371807    14.003074004430
      Gh(H)           0.364390572176    -0.732726690420     1.640031371807     1.007825032230
      Gh(H)           1.836508572176    -0.088607690420     2.323583371807     1.007825032230
      Gh(C)           3.861973572176     0.160952309580    -1.060840628193    12.000000000000
      Gh(H)           3.264736572176     0.334860309580    -1.952331628193     1.007825032230
      Gh(H)           4.792459572176     0.719738309580    -1.144007628193     1.007825032230
      Gh(H)           4.100563572176    -0.900767690420    -1.019581628193     1.007825032230
      Gh(H)           2.886361572176     1.662511309580     0.142133371807     1.007825032230
      Gh(H)           3.667227572176     0.405734309580     1.086090371807     1.007825032230
         C           -2.747128427824    -0.075308690420    -0.973790628193    12.000000000000
         C           -2.491268427824    -1.300956690420    -0.108740628193    12.000000000000
         H           -1.921806427824     0.028465309580    -1.686103628193     1.007825032230
         H           -3.644146427824    -0.278400690420    -1.566076628193     1.007825032230
         O           -1.201829427824    -1.316617690420     0.496484371807    15.994914619570
         H           -3.212882427824    -1.340980690420     0.709460371807     1.007825032230
         H           -2.625150427824    -2.204544690420    -0.712015628193     1.007825032230
         H           -0.535598427824    -1.097818690420    -0.184831628193     1.007825032230
         C           -2.944528427824     1.236288309580    -0.216379628193    12.000000000000
         H           -3.271865427824     1.995908309580    -0.930209628193     1.007825032230
         H           -3.764955427824     1.112581309580     0.496504371807     1.007825032230
         C           -1.704111427824     1.745119309580     0.512412371807    12.000000000000
         H           -0.855205427824     1.805479309580    -0.170968628193     1.007825032230
         H           -1.880185427824     2.738924309580     0.925208371807     1.007825032230
         H           -1.424093427824     1.080023309580     1.325774371807     1.007825032230

  Charge       = 0
  Multiplicity = 1
  Basis Set: JUN-CC-PVTZ
    Blend: JUN-CC-PVTZ
  Basis Set: (JUN-CC-PVTZ AUX)
    Blend: JUN-CC-PVTZ-JKFIT

    Orbital Energies [Eh]
    ---------------------

    Doubly Occupied:

       1A    -20.554122     2A    -11.271421     3A    -11.222757
       4A    -11.218650     5A    -11.204632     6A     -1.351895
       7A     -1.069822     8A     -0.973327     9A     -0.868423
      10A     -0.792642    11A     -0.667843    12A     -0.643521
      13A     -0.628609    14A     -0.585308    15A     -0.563486
      16A     -0.535615    17A     -0.502771    18A     -0.496647
      19A     -0.474451    20A     -0.460463    21A     -0.425455

  @DF-RHF Final Energy:  -232.23524326218438

   => Energetics <=

    Nuclear Repulsion Energy =            192.3998561469329900
    One-Electron Energy =                -696.2464799499925903
    Two-Electron Energy =                 271.6113805408752455
    Total Energy =                       -232.2352432621843832

  Dipole Moment: [D]
     X:    -0.4949      Y:     0.4656      Z:    -1.6516     Total:     1.7859

    SAPT Results
  --------------------------------------------------------------------------------------------------------
    Electrostatics                -29.76604772 [mEh]     -18.67847694 [kcal/mol]     -78.15074752 [kJ/mol]
      Elst10,r                    -29.76604772 [mEh]     -18.67847694 [kcal/mol]     -78.15074752 [kJ/mol]

    Exchange                       29.96852877 [mEh]      18.80553572 [kcal/mol]      78.68236144 [kJ/mol]
      Exch10                       29.96852877 [mEh]      18.80553572 [kcal/mol]      78.68236144 [kJ/mol]
      Exch10(S^2)                  29.69138617 [mEh]      18.63162611 [kcal/mol]      77.95472364 [kJ/mol]

    Induction                     -10.00819145 [mEh]      -6.28023495 [kcal/mol]     -26.27650304 [kJ/mol]
      Ind20,r                     -14.69023116 [mEh]      -9.21825922 [kcal/mol]     -38.56919660 [kJ/mol]
      Exch-Ind20,r                  8.65368571 [mEh]       5.43026977 [kcal/mol]      22.72024870 [kJ/mol]
      delta HF,r (2)               -3.97164600 [mEh]      -2.49224549 [kcal/mol]     -10.42755515 [kJ/mol]

    Dispersion                    -11.98523481 [mEh]      -7.52084839 [kcal/mol]     -31.46722966 [kJ/mol]
      Disp20                      -14.38047240 [mEh]      -9.02388267 [kcal/mol]     -37.75592508 [kJ/mol]
      Exch-Disp20                   2.39523758 [mEh]       1.50303428 [kcal/mol]       6.28869541 [kJ/mol]
      Disp20 (SS)                  -7.19023620 [mEh]      -4.51194133 [kcal/mol]     -18.87796254 [kJ/mol]
      Disp20 (OS)                  -7.19023620 [mEh]      -4.51194133 [kcal/mol]     -18.87796254 [kJ/mol]
      Exch-Disp20 (SS)              1.49908651 [mEh]       0.94069098 [kcal/mol]       3.93585108 [kJ/mol]
      Exch-Disp20 (OS)              0.89615108 [mEh]       0.56234329 [kcal/mol]       2.35284433 [kJ/mol]

  Total HF                         -9.80571040 [mEh]      -6.15317618 [kcal/mol]     -25.74488912 [kJ/mol]
  Total SAPT0                     -21.79094522 [mEh]     -13.67402457 [kcal/mol]     -57.21211878 [kJ/mol]

  Special recipe for scaled SAPT0 (see Manual):
    Electrostatics sSAPT0         -29.76604772 [mEh]     -18.67847694 [kcal/mol]     -78.15074752 [kJ/mol]
    Exchange sSAPT0                29.96852877 [mEh]      18.80553572 [kcal/mol]      78.68236144 [kJ/mol]
    Induction sSAPT0               -9.76359924 [mEh]      -6.12675102 [kcal/mol]     -25.63432627 [kJ/mol]
    Dispersion sSAPT0             -11.91753459 [mEh]      -7.47836586 [kcal/mol]     -31.28948275 [kJ/mol]
  Total sSAPT0                    -21.47865277 [mEh]     -13.47805810 [kcal/mol]     -56.39219509 [kJ/mol]
  --------------------------------------------------------------------------------------------------------

*** Psi4 exiting successfully. Buy a developer a beer!
