                               Psi4 1.3.2 release

  ==> Input File <==

--------------------------------------------------------------------------
# Any line starting with the # character is a comment line
#! Sample  computation

memory 22 gb

molecule Dimer {
0 1
 C 3.056872   -0.440303    0.122339
 C 1.621417   -0.029043   -0.081391
 O 0.906960   -0.600520   -0.909279
 N 1.168697    0.987399    0.686688
 H 3.565926    0.143345    0.885650
 H 3.077199   -1.492658    0.397270
 H 3.581915   -0.335182   -0.824635

H 0.206780    1.288403    0.571241
 H 1.772744    1.449872    1.339162

 --
0 1
 C -2.396659   -0.914652    0.793800
 C -2.621257    0.146493   -0.267507
 O -1.431891    0.874246   -0.560741
 H -1.655106   -1.639134    0.456907
 H -3.324587   -1.446497    1.007095
 H -2.038123   -0.459736    1.716485
 H -3.017087   -0.308440   -1.179725
 H -3.347220    0.883073    0.074180
 H -0.766116    0.240393   -0.893736

units angstrom

no_reorient
symmetry c1
}

set globals{
  basis jun-cc-pvtz
}

energy('sapt0')

--------------------------------------------------------------------------

  //              Dimer HF             //
    Molecular point group: c1
  Charge       = 0
  Multiplicity = 1
  Basis Set: JUN-CC-PVTZ
    Blend: JUN-CC-PVTZ
  Basis Set: (JUN-CC-PVTZ AUX)
    Blend: JUN-CC-PVTZ-JKFIT
  @DF-RHF Final Energy:  -362.21553065960762
    Total Energy =                       -362.2155306596076230
  //            Monomer A HF           //
    Molecular point group: c1
  Multiplicity = 1
  Basis Set: JUN-CC-PVTZ
    Blend: JUN-CC-PVTZ
  Basis Set: (JUN-CC-PVTZ AUX)
    Blend: JUN-CC-PVTZ-JKFIT
  @DF-RHF Final Energy:  -208.06111607488208
    Total Energy =                       -208.0611160748820794
  //            Monomer B HF           //
    Molecular point group: c1

    Geometry (in Angstrom), charge = 0, multiplicity = 1:

       Center              X                  Y                   Z               Mass
    ------------   -----------------  -----------------  -----------------  -----------------
      Gh(C)           3.038459984963    -0.456149224872     0.155766594358    12.000000000000
      Gh(C)           1.603004984963    -0.044889224872    -0.047963405642    12.000000000000
      Gh(O)           0.888547984963    -0.616366224872    -0.875851405642    15.994914619570
      Gh(N)           1.150284984963     0.971552775128     0.720115594358    14.003074004430
      Gh(H)           3.547513984963     0.127498775128     0.919077594358     1.007825032230
      Gh(H)           3.058786984963    -1.508504224872     0.430697594358     1.007825032230
      Gh(H)           3.563502984963    -0.351028224872    -0.791207405642     1.007825032230
      Gh(H)           0.188367984963     1.272556775128     0.604668594358     1.007825032230
      Gh(H)           1.754331984963     1.434025775128     1.372589594358     1.007825032230
         C           -2.415071015037    -0.930498224872     0.827227594358    12.000000000000
         C           -2.639669015037     0.130646775128    -0.234079405642    12.000000000000
         O           -1.450303015037     0.858399775128    -0.527313405642    15.994914619570
         H           -1.673518015037    -1.654980224872     0.490334594358     1.007825032230
         H           -3.342999015037    -1.462343224872     1.040522594358     1.007825032230
         H           -2.056535015037    -0.475582224872     1.749912594358     1.007825032230
         H           -3.035499015037    -0.324286224872    -1.146297405642     1.007825032230
         H           -3.365632015037     0.867226775128     0.107607594358     1.007825032230
         H           -0.784528015037     0.224546775128    -0.860308405642     1.007825032230

  Charge       = 0
  Multiplicity = 1
  Basis Set: JUN-CC-PVTZ
    Blend: JUN-CC-PVTZ
  Basis Set: (JUN-CC-PVTZ AUX)
    Blend: JUN-CC-PVTZ-JKFIT

    Orbital Energies [Eh]
    ---------------------

    Doubly Occupied:

       1A    -20.556522     2A    -11.274187     3A    -11.218048
       4A     -1.352773     5A     -1.012936     6A     -0.847050
       7A     -0.684022     8A     -0.623357     9A     -0.606017
      10A     -0.544925    11A     -0.526657    12A     -0.482072
      13A     -0.443109

  @DF-RHF Final Energy:  -154.14365654643331

   => Energetics <=

    Nuclear Repulsion Energy =             81.7172444846592327
    One-Electron Energy =                -371.3784492765109917
    Two-Electron Energy =                 135.5175482454184817
    Total Energy =                       -154.1436565464333057

  Dipole Moment: [D]
     X:    -0.3305      Y:    -1.8211      Z:    -0.0799     Total:     1.8526

    SAPT Results
  --------------------------------------------------------------------------------------------------------
    Electrostatics                -30.70121792 [mEh]     -19.26530510 [kcal/mol]     -80.60603655 [kJ/mol]
      Elst10,r                    -30.70121792 [mEh]     -19.26530510 [kcal/mol]     -80.60603655 [kJ/mol]

    Exchange                       29.98121001 [mEh]      18.81349332 [kcal/mol]      78.71565604 [kJ/mol]
      Exch10                       29.98121001 [mEh]      18.81349332 [kcal/mol]      78.71565604 [kJ/mol]
      Exch10(S^2)                  29.67969360 [mEh]      18.62428891 [kcal/mol]      77.92402482 [kJ/mol]

    Induction                     -10.03803038 [mEh]      -6.29895916 [kcal/mol]     -26.35484513 [kJ/mol]
      Ind20,r                     -15.28718323 [mEh]      -9.59285231 [kcal/mol]     -40.13649405 [kJ/mol]
      Exch-Ind20,r                  9.27827205 [mEh]       5.82220361 [kcal/mol]      24.36009990 [kJ/mol]
      delta HF,r (2)               -4.02911919 [mEh]      -2.52831046 [kcal/mol]     -10.57845098 [kJ/mol]

    Dispersion                    -10.05541244 [mEh]      -6.30986657 [kcal/mol]     -26.40048173 [kJ/mol]
      Disp20                      -12.38789163 [mEh]      -7.77351936 [kcal/mol]     -32.52440499 [kJ/mol]
      Exch-Disp20                   2.33247919 [mEh]       1.46365279 [kcal/mol]       6.12392327 [kJ/mol]
      Disp20 (SS)                  -6.19394581 [mEh]      -3.88675968 [kcal/mol]     -16.26220250 [kJ/mol]
      Disp20 (OS)                  -6.19394581 [mEh]      -3.88675968 [kcal/mol]     -16.26220250 [kJ/mol]
      Exch-Disp20 (SS)              1.46058320 [mEh]       0.91652979 [kcal/mol]       3.83476066 [kJ/mol]
      Exch-Disp20 (OS)              0.87189599 [mEh]       0.54712299 [kcal/mol]       2.28916260 [kJ/mol]

  Total HF                        -10.75803829 [mEh]      -6.75077095 [kcal/mol]     -28.24522564 [kJ/mol]
  Total SAPT0                     -20.81345073 [mEh]     -13.06063752 [kcal/mol]     -54.64570737 [kJ/mol]

  Special recipe for scaled SAPT0 (see Manual):
    Electrostatics sSAPT0         -30.70121792 [mEh]     -19.26530510 [kcal/mol]     -80.60603655 [kJ/mol]
    Exchange sSAPT0                29.98121001 [mEh]      18.81349332 [kcal/mol]      78.71565604 [kJ/mol]
    Induction sSAPT0               -9.75237367 [mEh]      -6.11970687 [kcal/mol]     -25.60485355 [kJ/mol]
    Dispersion sSAPT0              -9.98360076 [mEh]      -6.26480406 [kcal/mol]     -26.21194018 [kJ/mol]
  Total sSAPT0                    -20.45598234 [mEh]     -12.83632272 [kcal/mol]     -53.70717424 [kJ/mol]
  --------------------------------------------------------------------------------------------------------

*** Psi4 exiting successfully. Buy a developer a beer!
