                               Psi4 1.3.2 release

  ==> Input File <==

--------------------------------------------------------------------------
# Any line starting with the # character is a comment line
#! Sample  computation

memory 22 gb

molecule Dimer {
0 1
 C -2.650698   -0.295681    0.123389
 C -1.156520   -0.426091   -0.073990
 O -0.555512    0.254625   -0.910290
 N -0.527824   -1.338505    0.701018
 H  0.467132   -1.484601    0.567841
 H -1.040774   -1.892491    1.360725
 C -3.107646    1.151547    0.000788
 H -2.791088    1.562507   -0.954559
 H -4.191731    1.218351    0.072628
 H -2.672957    1.762508    0.790833
 H -3.121612   -0.902901   -0.653209
 H -2.942419   -0.721052    1.084568

 --
0 1
 C 2.611154    1.119169    0.808731
 C 3.036804    0.138059   -0.268046
 O 2.007127   -0.795057   -0.583143
 H 1.747727    1.696579    0.477849
 H 3.421172    1.812549    1.037919
 H 2.340496    0.588895    1.721122
 H 3.344737    0.675604   -1.169219
 H 3.886703   -0.454737    0.067546
 H 1.235900   -0.290234   -0.908944

units angstrom

no_reorient
symmetry c1
}

set globals{
  basis jun-cc-pvtz
}

energy('sapt0')

--------------------------------------------------------------------------

  //              Dimer HF             //
    Molecular point group: c1
  Charge       = 0
  Multiplicity = 1
  Basis Set: JUN-CC-PVTZ
    Blend: JUN-CC-PVTZ
  Basis Set: (JUN-CC-PVTZ AUX)
    Blend: JUN-CC-PVTZ-JKFIT
  @DF-RHF Final Energy:  -401.26302580599736
    Total Energy =                       -401.2630258059973585
  //            Monomer A HF           //
    Molecular point group: c1
  Multiplicity = 1
  Basis Set: JUN-CC-PVTZ
    Blend: JUN-CC-PVTZ
  Basis Set: (JUN-CC-PVTZ AUX)
    Blend: JUN-CC-PVTZ-JKFIT
  @DF-RHF Final Energy:  -247.10883775731648
    Total Energy =                       -247.1088377573165076
  //            Monomer B HF           //
    Molecular point group: c1

    Geometry (in Angstrom), charge = 0, multiplicity = 1:

       Center              X                  Y                   Z               Mass
    ------------   -----------------  -----------------  -----------------  -----------------
      Gh(C)          -2.653260963236    -0.265919857137     0.152424844532    12.000000000000
      Gh(C)          -1.159082963236    -0.396329857137    -0.044954155468    12.000000000000
      Gh(O)          -0.558074963236     0.284386142863    -0.881254155468    15.994914619570
      Gh(N)          -0.530386963236    -1.308743857137     0.730053844532    14.003074004430
      Gh(H)           0.464569036764    -1.454839857137     0.596876844532     1.007825032230
      Gh(H)          -1.043336963236    -1.862729857137     1.389760844532     1.007825032230
      Gh(C)          -3.110208963236     1.181308142863     0.029823844532    12.000000000000
      Gh(H)          -2.793650963236     1.592268142863    -0.925523155468     1.007825032230
      Gh(H)          -4.194293963236     1.248112142863     0.101663844532     1.007825032230
      Gh(H)          -2.675519963236     1.792269142863     0.819868844532     1.007825032230
      Gh(H)          -3.124174963236    -0.873139857137    -0.624173155468     1.007825032230
      Gh(H)          -2.944981963236    -0.691290857137     1.113603844532     1.007825032230
         C            2.608591036764     1.148930142863     0.837766844532    12.000000000000
         C            3.034241036764     0.167820142863    -0.239010155468    12.000000000000
         O            2.004564036764    -0.765295857137    -0.554107155468    15.994914619570
         H            1.745164036764     1.726340142863     0.506884844532     1.007825032230
         H            3.418609036764     1.842310142863     1.066954844532     1.007825032230
         H            2.337933036764     0.618656142863     1.750157844532     1.007825032230
         H            3.342174036764     0.705365142863    -1.140183155468     1.007825032230
         H            3.884140036764    -0.424975857137     0.096581844532     1.007825032230
         H            1.233337036764    -0.260472857137    -0.879908155468     1.007825032230

  Charge       = 0
  Multiplicity = 1
  Basis Set: JUN-CC-PVTZ
    Blend: JUN-CC-PVTZ
  Basis Set: (JUN-CC-PVTZ AUX)
    Blend: JUN-CC-PVTZ-JKFIT

    Orbital Energies [Eh]
    ---------------------

    Doubly Occupied:

       1A    -20.556574     2A    -11.274200     3A    -11.218111
       4A     -1.352862     5A     -1.012919     6A     -0.847044
       7A     -0.684009     8A     -0.623318     9A     -0.606100
      10A     -0.544937    11A     -0.526701    12A     -0.482157
      13A     -0.443120

  @DF-RHF Final Energy:  -154.14365305833286

   => Energetics <=

    Nuclear Repulsion Energy =             81.7172446244520927
    One-Electron Energy =                -371.3776861009957884
    Two-Electron Energy =                 135.5167884182108651
    Total Energy =                       -154.1436530583328590

  Dipole Moment: [D]
     X:    -0.0168      Y:     1.8539      Z:    -0.0431     Total:     1.8544

    SAPT Results
  --------------------------------------------------------------------------------------------------------
    Electrostatics                -30.52374165 [mEh]     -19.15393706 [kcal/mol]     -80.14007267 [kJ/mol]
      Elst10,r                    -30.52374165 [mEh]     -19.15393706 [kcal/mol]     -80.14007267 [kJ/mol]

    Exchange                       29.93973239 [mEh]      18.78746572 [kcal/mol]      78.60675657 [kJ/mol]
      Exch10                       29.93973239 [mEh]      18.78746572 [kcal/mol]      78.60675657 [kJ/mol]
      Exch10(S^2)                  29.63765981 [mEh]      18.59791231 [kcal/mol]      77.81366511 [kJ/mol]

    Induction                      -9.95098109 [mEh]      -6.24433491 [kcal/mol]     -26.12629725 [kJ/mol]
      Ind20,r                     -15.24161956 [mEh]      -9.56426067 [kcal/mol]     -40.01686664 [kJ/mol]
      Exch-Ind20,r                  9.29272862 [mEh]       5.83127525 [kcal/mol]      24.39805563 [kJ/mol]
      delta HF,r (2)               -4.00209015 [mEh]      -2.51134948 [kcal/mol]     -10.50748623 [kJ/mol]

    Dispersion                    -10.24380688 [mEh]      -6.42808587 [kcal/mol]     -26.89511126 [kJ/mol]
      Disp20                      -12.59374496 [mEh]      -7.90269427 [kcal/mol]     -33.06487282 [kJ/mol]
      Exch-Disp20                   2.34993807 [mEh]       1.47460840 [kcal/mol]       6.16976156 [kJ/mol]
      Disp20 (SS)                  -6.29687248 [mEh]      -3.95134713 [kcal/mol]     -16.53243641 [kJ/mol]
      Disp20 (OS)                  -6.29687248 [mEh]      -3.95134713 [kcal/mol]     -16.53243641 [kJ/mol]
      Exch-Disp20 (SS)              1.47207192 [mEh]       0.92373907 [kcal/mol]       3.86492428 [kJ/mol]
      Exch-Disp20 (OS)              0.87786616 [mEh]       0.55086933 [kcal/mol]       2.30483728 [kJ/mol]

  Total HF                        -10.53499035 [mEh]      -6.61080625 [kcal/mol]     -27.65961335 [kJ/mol]
  Total SAPT0                     -20.77879723 [mEh]     -13.03889212 [kcal/mol]     -54.55472461 [kJ/mol]

  Special recipe for scaled SAPT0 (see Manual):
    Electrostatics sSAPT0         -30.52374165 [mEh]     -19.15393706 [kcal/mol]     -80.14007267 [kJ/mol]
    Exchange sSAPT0                29.93973239 [mEh]      18.78746572 [kcal/mol]      78.60675657 [kJ/mol]
    Induction sSAPT0               -9.66393555 [mEh]      -6.06421111 [kcal/mol]     -25.37265929 [kJ/mol]
    Dispersion sSAPT0             -10.17121903 [mEh]      -6.38253630 [kcal/mol]     -26.70453187 [kJ/mol]
  Total sSAPT0                    -20.41916383 [mEh]     -12.81321875 [kcal/mol]     -53.61050726 [kJ/mol]
  --------------------------------------------------------------------------------------------------------

*** Psi4 exiting successfully. Buy a developer a beer!
