                               Psi4 1.3.2 release

  ==> Input File <==

--------------------------------------------------------------------------
# Any line starting with the # character is a comment line
#! Sample  computation

memory 22 gb

molecule Dimer {
0 1
 C -2.136865    0.331211    0.091331
 O -1.402208    1.068142   -0.561362
 N -1.801865   -0.898262    0.527613
 H -2.463879   -1.447340    1.043758
 H -0.878919   -1.261146    0.312718
 H -3.152553    0.636408    0.374415

 --
0 1
 C 2.109362    0.567435    0.886079
 C 2.088812   -0.256121   -0.387730
 O 0.775777   -0.701404   -0.719198
 H 1.492886    1.459462    0.774008
 H 3.126447    0.881475    1.122933
 H 1.722472   -0.014599    1.721562
 H 2.509936    0.317495   -1.217771
 H 2.689189   -1.157327   -0.272381
 H 0.211074    0.084355   -0.846132

units angstrom

no_reorient
symmetry c1
}

set globals{
  basis jun-cc-pvtz
}

energy('sapt0')

--------------------------------------------------------------------------

  //              Dimer HF             //
    Molecular point group: c1
  Charge       = 0
  Multiplicity = 1
  Basis Set: JUN-CC-PVTZ
    Blend: JUN-CC-PVTZ
  Basis Set: (JUN-CC-PVTZ AUX)
    Blend: JUN-CC-PVTZ-JKFIT
  @DF-RHF Final Energy:  -323.15717778577823
    Total Energy =                       -323.1571777857782308
  //            Monomer A HF           //
    Molecular point group: c1
  Multiplicity = 1
  Basis Set: JUN-CC-PVTZ
    Blend: JUN-CC-PVTZ
  Basis Set: (JUN-CC-PVTZ AUX)
    Blend: JUN-CC-PVTZ-JKFIT
  @DF-RHF Final Energy:  -169.00284237665869
    Total Energy =                       -169.0028423766586911
  //            Monomer B HF           //
    Molecular point group: c1

    Geometry (in Angstrom), charge = 0, multiplicity = 1:

       Center              X                  Y                   Z               Mass
    ------------   -----------------  -----------------  -----------------  -----------------
      Gh(C)          -2.079565701743     0.325800757423     0.124070812455    12.000000000000
      Gh(O)          -1.344908701743     1.062731757423    -0.528622187545    15.994914619570
      Gh(N)          -1.744565701743    -0.903672242577     0.560352812455    14.003074004430
      Gh(H)          -2.406579701743    -1.452750242577     1.076497812455     1.007825032230
      Gh(H)          -0.821619701743    -1.266556242577     0.345457812455     1.007825032230
      Gh(H)          -3.095253701743     0.630997757423     0.407154812455     1.007825032230
         C            2.166661298257     0.562024757423     0.918818812455    12.000000000000
         C            2.146111298257    -0.261531242577    -0.354990187545    12.000000000000
         O            0.833076298257    -0.706814242577    -0.686458187545    15.994914619570
         H            1.550185298257     1.454051757423     0.806747812455     1.007825032230
         H            3.183746298257     0.876064757423     1.155672812455     1.007825032230
         H            1.779771298257    -0.020009242577     1.754301812455     1.007825032230
         H            2.567235298257     0.312084757423    -1.185031187545     1.007825032230
         H            2.746488298257    -1.162737242577    -0.239641187545     1.007825032230
         H            0.268373298257     0.078944757423    -0.813392187545     1.007825032230

  Charge       = 0
  Multiplicity = 1
  Basis Set: JUN-CC-PVTZ
    Blend: JUN-CC-PVTZ
  Basis Set: (JUN-CC-PVTZ AUX)
    Blend: JUN-CC-PVTZ-JKFIT

    Orbital Energies [Eh]
    ---------------------

    Doubly Occupied:

       1A    -20.556116     2A    -11.274194     3A    -11.218075
       4A     -1.352667     5A     -1.013191     6A     -0.847371
       7A     -0.683895     8A     -0.623295     9A     -0.606464
      10A     -0.544761    11A     -0.526558    12A     -0.482145
      13A     -0.443186

  @DF-RHF Final Energy:  -154.14378751902973

   => Energetics <=

    Nuclear Repulsion Energy =             81.7217820383656317
    One-Electron Energy =                -371.3873039929337665
    Two-Electron Energy =                 135.5217344355384057
    Total Energy =                       -154.1437875190297291

  Dipole Moment: [D]
     X:     0.6371      Y:     1.7152      Z:     0.2835     Total:     1.8516

    SAPT Results
  --------------------------------------------------------------------------------------------------------
    Electrostatics                -28.95285850 [mEh]     -18.16819300 [kcal/mol]     -76.01571952 [kJ/mol]
      Elst10,r                    -28.95285850 [mEh]     -18.16819300 [kcal/mol]     -76.01571952 [kJ/mol]

    Exchange                       27.60520795 [mEh]      17.32252952 [kcal/mol]      72.47746350 [kJ/mol]
      Exch10                       27.60520795 [mEh]      17.32252952 [kcal/mol]      72.47746350 [kJ/mol]
      Exch10(S^2)                  27.35735545 [mEh]      17.16699972 [kcal/mol]      71.82672683 [kJ/mol]

    Induction                      -9.20023954 [mEh]      -5.77323747 [kcal/mol]     -24.15522559 [kJ/mol]
      Ind20,r                     -14.05299187 [mEh]      -8.81838553 [kcal/mol]     -36.89612506 [kJ/mol]
      Exch-Ind20,r                  8.51925390 [mEh]       5.34591253 [kcal/mol]      22.36729803 [kJ/mol]
      delta HF,r (2)               -3.66650158 [mEh]      -2.30076448 [kcal/mol]      -9.62639856 [kJ/mol]

    Dispersion                     -9.29010261 [mEh]      -5.82962740 [kcal/mol]     -24.39116106 [kJ/mol]
      Disp20                      -11.41774098 [mEh]      -7.16474063 [kcal/mol]     -29.97727480 [kJ/mol]
      Exch-Disp20                   2.12763836 [mEh]       1.33511323 [kcal/mol]       5.58611375 [kJ/mol]
      Disp20 (SS)                  -5.70887049 [mEh]      -3.58237032 [kcal/mol]     -14.98863740 [kJ/mol]
      Disp20 (OS)                  -5.70887049 [mEh]      -3.58237032 [kcal/mol]     -14.98863740 [kJ/mol]
      Exch-Disp20 (SS)              1.33215824 [mEh]       0.83594191 [kcal/mol]       3.49758097 [kJ/mol]
      Exch-Disp20 (OS)              0.79548012 [mEh]       0.49917131 [kcal/mol]       2.08853278 [kJ/mol]

  Total HF                        -10.54789009 [mEh]      -6.61890096 [kcal/mol]     -27.69348162 [kJ/mol]
  Total SAPT0                     -19.83799270 [mEh]     -12.44852836 [kcal/mol]     -52.08464267 [kJ/mol]

  Special recipe for scaled SAPT0 (see Manual):
    Electrostatics sSAPT0         -28.95285850 [mEh]     -18.16819300 [kcal/mol]     -76.01571952 [kJ/mol]
    Exchange sSAPT0                27.60520795 [mEh]      17.32252952 [kcal/mol]      72.47746350 [kJ/mol]
    Induction sSAPT0               -8.96658690 [mEh]      -5.62661823 [kcal/mol]     -23.54177066 [kJ/mol]
    Dispersion sSAPT0              -9.23174911 [mEh]      -5.79301003 [kcal/mol]     -24.23795395 [kJ/mol]
  Total sSAPT0                    -19.54598655 [mEh]     -12.26529174 [kcal/mol]     -51.31798062 [kJ/mol]
  --------------------------------------------------------------------------------------------------------

*** Psi4 exiting successfully. Buy a developer a beer!
