                               Psi4 1.3.2 release

  ==> Input File <==

--------------------------------------------------------------------------
# Any line starting with the # character is a comment line
#! Sample  computation

memory 22 gb

molecule Dimer {
0 1
 C -1.824133   -0.247234    0.057892
 O -1.057844   -1.203077   -0.028103
 N -1.446471    1.045534    0.055526
 H -2.136124    1.771300    0.115901
 H -0.461374    1.272107   -0.025775
 H -2.909159   -0.387097    0.146926

 --
0 1
 C 2.563703   -0.056202    0.183260
 O 1.280420    0.292373   -0.318027
 H 3.190447    0.828464    0.109292
 H 3.018773   -0.854863   -0.404426
 H 2.518578   -0.366358    1.228790
 H 0.686118   -0.476036   -0.237262

units angstrom

no_reorient
symmetry c1
}

set globals{
  basis jun-cc-pvtz
}

energy('sapt0')

--------------------------------------------------------------------------

  //              Dimer HF             //
    Molecular point group: c1
  Charge       = 0
  Multiplicity = 1
  Basis Set: JUN-CC-PVTZ
    Blend: JUN-CC-PVTZ
  Basis Set: (JUN-CC-PVTZ AUX)
    Blend: JUN-CC-PVTZ-JKFIT
  @DF-RHF Final Energy:  -284.10506895112121
    Total Energy =                       -284.1050689511212113
  //            Monomer A HF           //
    Molecular point group: c1
  Multiplicity = 1
  Basis Set: JUN-CC-PVTZ
    Blend: JUN-CC-PVTZ
  Basis Set: (JUN-CC-PVTZ AUX)
    Blend: JUN-CC-PVTZ-JKFIT
  @DF-RHF Final Energy:  -169.00288948217681
    Total Energy =                       -169.0028894821768120
  //            Monomer B HF           //
    Molecular point group: c1

    Geometry (in Angstrom), charge = 0, multiplicity = 1:

       Center              X                  Y                   Z               Mass
    ------------   -----------------  -----------------  -----------------  -----------------
      Gh(C)          -1.773744941704    -0.224317405957     0.069887311000    12.000000000000
      Gh(O)          -1.007455941704    -1.180160405957    -0.016107689000    15.994914619570
      Gh(N)          -1.396082941704     1.068450594043     0.067521311000    14.003074004430
      Gh(H)          -2.085735941704     1.794216594043     0.127896311000     1.007825032230
      Gh(H)          -0.410985941704     1.295023594043    -0.013779689000     1.007825032230
      Gh(H)          -2.858770941704    -0.364180405957     0.158921311000     1.007825032230
         C            2.614091058296    -0.033285405957     0.195255311000    12.000000000000
         O            1.330808058296     0.315289594043    -0.306031689000    15.994914619570
         H            3.240835058296     0.851380594043     0.121287311000     1.007825032230
         H            3.069161058296    -0.831946405957    -0.392430689000     1.007825032230
         H            2.568966058296    -0.343441405957     1.240785311000     1.007825032230
         H            0.736506058296    -0.453119405957    -0.225266689000     1.007825032230

  Charge       = 0
  Multiplicity = 1
  Basis Set: JUN-CC-PVTZ
    Blend: JUN-CC-PVTZ
  Basis Set: (JUN-CC-PVTZ AUX)
    Blend: JUN-CC-PVTZ-JKFIT

    Orbital Energies [Eh]
    ---------------------

    Doubly Occupied:

       1A    -20.559786     2A    -11.270801     3A     -1.353371
       4A     -0.925248     5A     -0.687822     6A     -0.620329
       7A     -0.593962     8A     -0.502428     9A     -0.450889

  @DF-RHF Final Energy:  -115.09106649514649

   => Energetics <=

    Nuclear Repulsion Energy =             40.2447359611514202
    One-Electron Energy =                -236.7423320836189191
    Two-Electron Energy =                  81.4065296273209924
    Total Energy =                       -115.0910664951464923

  Dipole Moment: [D]
     X:     0.4731      Y:    -1.5993      Z:     0.6832     Total:     1.8023

    SAPT Results
  --------------------------------------------------------------------------------------------------------
    Electrostatics                -28.63000809 [mEh]     -17.96560131 [kcal/mol]     -75.16807589 [kJ/mol]
      Elst10,r                    -28.63000809 [mEh]     -17.96560131 [kcal/mol]     -75.16807589 [kJ/mol]

    Exchange                       26.58233556 [mEh]      16.68066740 [kcal/mol]      69.79191239 [kJ/mol]
      Exch10                       26.58233556 [mEh]      16.68066740 [kcal/mol]      69.79191239 [kJ/mol]
      Exch10(S^2)                  26.36338509 [mEh]      16.54327391 [kcal/mol]      69.21705802 [kJ/mol]

    Induction                      -9.06530126 [mEh]      -5.68856242 [kcal/mol]     -23.80094518 [kJ/mol]
      Ind20,r                     -13.42271565 [mEh]      -8.42288123 [kcal/mol]     -35.24133508 [kJ/mol]
      Exch-Ind20,r                  7.96715091 [mEh]       4.99946267 [kcal/mol]      20.91775183 [kJ/mol]
      delta HF,r (2)               -3.60973652 [mEh]      -2.26514386 [kcal/mol]      -9.47736192 [kJ/mol]

    Dispersion                     -8.32997909 [mEh]      -5.22714080 [kcal/mol]     -21.87035710 [kJ/mol]
      Disp20                      -10.29641070 [mEh]      -6.46109526 [kcal/mol]     -27.03322257 [kJ/mol]
      Exch-Disp20                   1.96643161 [mEh]       1.23395446 [kcal/mol]       5.16286547 [kJ/mol]
      Disp20 (SS)                  -5.14820535 [mEh]      -3.23054763 [kcal/mol]     -13.51661128 [kJ/mol]
      Disp20 (OS)                  -5.14820535 [mEh]      -3.23054763 [kcal/mol]     -13.51661128 [kJ/mol]
      Exch-Disp20 (SS)              1.22730835 [mEh]       0.77014762 [kcal/mol]       3.22229763 [kJ/mol]
      Exch-Disp20 (OS)              0.73912325 [mEh]       0.46380684 [kcal/mol]       1.94056784 [kJ/mol]

  Total HF                        -11.11297380 [mEh]      -6.97349634 [kcal/mol]     -29.17710869 [kJ/mol]
  Total SAPT0                     -19.44295289 [mEh]     -12.20063714 [kcal/mol]     -51.04746578 [kJ/mol]

  Special recipe for scaled SAPT0 (see Manual):
    Electrostatics sSAPT0         -28.63000809 [mEh]     -17.96560131 [kcal/mol]     -75.16807589 [kJ/mol]
    Exchange sSAPT0                26.58233556 [mEh]      16.68066740 [kcal/mol]      69.79191239 [kJ/mol]
    Induction sSAPT0               -8.86514422 [mEh]      -5.56296199 [kcal/mol]     -23.27543295 [kJ/mol]
    Dispersion sSAPT0              -8.28057685 [mEh]      -5.19614042 [kcal/mol]     -21.74065153 [kJ/mol]
  Total sSAPT0                    -19.19339361 [mEh]     -12.04403633 [kcal/mol]     -50.39224799 [kJ/mol]
  --------------------------------------------------------------------------------------------------------

*** Psi4 exiting successfully. Buy a developer a beer!
