                               Psi4 1.3.2 release

  ==> Input File <==

--------------------------------------------------------------------------
# Any line starting with the # character is a comment line
#! Sample  computation

memory 22 gb

molecule Dimer {
0 1
 C -2.769095   -0.238182    0.112140
 C -1.275016   -0.077265   -0.001981
 O -0.536810   -1.058745   -0.119383
 N -0.799110    1.187692    0.031890
 H -3.129119   -0.743323   -0.781634
 H -2.981750   -0.880327    0.963975
 H -3.294274    0.706618    0.230188
 H  0.201082    1.331438   -0.053233
 H -1.420233    1.970581    0.106888

 --
0 1
 C 3.058962   -0.182982    0.279808
 O 1.884995    0.257090   -0.388021
 H 3.778004    0.631272    0.242820
 H 3.495739   -1.054347   -0.210918
 H 2.862343   -0.428126    1.325504
 H 1.207391   -0.443816   -0.327390

units angstrom

no_reorient
symmetry c1
}

set globals{
  basis jun-cc-pvtz
}

energy('sapt0')

--------------------------------------------------------------------------

  //              Dimer HF             //
    Molecular point group: c1
  Charge       = 0
  Multiplicity = 1
  Basis Set: JUN-CC-PVTZ
    Blend: JUN-CC-PVTZ
  Basis Set: (JUN-CC-PVTZ AUX)
    Blend: JUN-CC-PVTZ-JKFIT
  @DF-RHF Final Energy:  -323.16357988542910
    Total Energy =                       -323.1635798854291011
  //            Monomer A HF           //
    Molecular point group: c1
  Multiplicity = 1
  Basis Set: JUN-CC-PVTZ
    Blend: JUN-CC-PVTZ
  Basis Set: (JUN-CC-PVTZ AUX)
    Blend: JUN-CC-PVTZ-JKFIT
  @DF-RHF Final Energy:  -208.06113342768808
    Total Energy =                       -208.0611334276880768
  //            Monomer B HF           //
    Molecular point group: c1

    Geometry (in Angstrom), charge = 0, multiplicity = 1:

       Center              X                  Y                   Z               Mass
    ------------   -----------------  -----------------  -----------------  -----------------
      Gh(C)          -2.761156899309    -0.226391158661     0.128412344074    12.000000000000
      Gh(C)          -1.267077899309    -0.065474158661     0.014291344074    12.000000000000
      Gh(O)          -0.528871899309    -1.046954158661    -0.103110655926    15.994914619570
      Gh(N)          -0.791171899309     1.199482841339     0.048162344074    14.003074004430
      Gh(H)          -3.121180899309    -0.731532158661    -0.765361655926     1.007825032230
      Gh(H)          -2.973811899309    -0.868536158661     0.980247344074     1.007825032230
      Gh(H)          -3.286335899309     0.718408841339     0.246460344074     1.007825032230
      Gh(H)           0.209020100691     1.343228841339    -0.036960655926     1.007825032230
      Gh(H)          -1.412294899309     1.982371841339     0.123160344074     1.007825032230
         C            3.066900100691    -0.171191158661     0.296080344074    12.000000000000
         O            1.892933100691     0.268880841339    -0.371748655926    15.994914619570
         H            3.785942100691     0.643062841339     0.259092344074     1.007825032230
         H            3.503677100691    -1.042556158661    -0.194645655926     1.007825032230
         H            2.870281100691    -0.416335158661     1.341776344074     1.007825032230
         H            1.215329100691    -0.432025158661    -0.311117655926     1.007825032230

  Charge       = 0
  Multiplicity = 1
  Basis Set: JUN-CC-PVTZ
    Blend: JUN-CC-PVTZ
  Basis Set: (JUN-CC-PVTZ AUX)
    Blend: JUN-CC-PVTZ-JKFIT

    Orbital Energies [Eh]
    ---------------------

    Doubly Occupied:

       1A    -20.560238     2A    -11.270802     3A     -1.353465
       4A     -0.924842     5A     -0.687654     6A     -0.620288
       7A     -0.593955     8A     -0.502635     9A     -0.450817

  @DF-RHF Final Energy:  -115.09092267575497

   => Energetics <=

    Nuclear Repulsion Energy =             40.2437580569153468
    One-Electron Energy =                -236.7399707343001580
    Two-Electron Energy =                  81.4052900016298508
    Total Energy =                       -115.0909226757549675

  Dipole Moment: [D]
     X:     0.2194      Y:    -1.5886      Z:     0.8333     Total:     1.8072

    SAPT Results
  --------------------------------------------------------------------------------------------------------
    Electrostatics                -30.52650345 [mEh]     -19.15567012 [kcal/mol]     -80.14732376 [kJ/mol]
      Elst10,r                    -30.52650345 [mEh]     -19.15567012 [kcal/mol]     -80.14732376 [kJ/mol]

    Exchange                       28.96299542 [mEh]      18.17455401 [kcal/mol]      76.04233399 [kJ/mol]
      Exch10                       28.96299542 [mEh]      18.17455401 [kcal/mol]      76.04233399 [kJ/mol]
      Exch10(S^2)                  28.68945889 [mEh]      18.00290725 [kcal/mol]      75.32416394 [kJ/mol]

    Induction                      -9.96027395 [mEh]      -6.25016627 [kcal/mol]     -26.15069566 [kJ/mol]
      Ind20,r                     -14.72095981 [mEh]      -9.23754175 [kcal/mol]     -38.64987467 [kJ/mol]
      Exch-Ind20,r                  8.77348055 [mEh]       5.50544216 [kcal/mol]      23.03477001 [kJ/mol]
      delta HF,r (2)               -4.01279469 [mEh]      -2.51806668 [kcal/mol]     -10.53559100 [kJ/mol]

    Dispersion                     -8.81552629 [mEh]      -5.53182627 [kcal/mol]     -23.14516110 [kJ/mol]
      Disp20                      -10.96476291 [mEh]      -6.88049260 [kcal/mol]     -28.78798104 [kJ/mol]
      Exch-Disp20                   2.14923661 [mEh]       1.34866634 [kcal/mol]       5.64281995 [kJ/mol]
      Disp20 (SS)                  -5.48238145 [mEh]      -3.44024630 [kcal/mol]     -14.39399052 [kJ/mol]
      Disp20 (OS)                  -5.48238145 [mEh]      -3.44024630 [kcal/mol]     -14.39399052 [kJ/mol]
      Exch-Disp20 (SS)              1.34225047 [mEh]       0.84227489 [kcal/mol]       3.52407812 [kJ/mol]
      Exch-Disp20 (OS)              0.80698614 [mEh]       0.50639145 [kcal/mol]       2.11874183 [kJ/mol]

  Total HF                        -11.52378199 [mEh]      -7.23128237 [kcal/mol]     -30.25568544 [kJ/mol]
  Total SAPT0                     -20.33930828 [mEh]     -12.76310864 [kcal/mol]     -53.40084653 [kJ/mol]

  Special recipe for scaled SAPT0 (see Manual):
    Electrostatics sSAPT0         -30.52650345 [mEh]     -19.15567012 [kcal/mol]     -80.14732376 [kJ/mol]
    Exchange sSAPT0                28.96299542 [mEh]      18.17455401 [kcal/mol]      76.04233399 [kJ/mol]
    Induction sSAPT0               -9.70692431 [mEh]      -6.09118697 [kcal/mol]     -25.48552627 [kJ/mol]
    Dispersion sSAPT0              -8.75346332 [mEh]      -5.49288116 [kcal/mol]     -22.98221477 [kJ/mol]
  Total sSAPT0                    -20.02389566 [mEh]     -12.56518423 [kcal/mol]     -52.57273082 [kJ/mol]
  --------------------------------------------------------------------------------------------------------

*** Psi4 exiting successfully. Buy a developer a beer!
