                               Psi4 1.3.2 release

  ==> Input File <==

--------------------------------------------------------------------------
# Any line starting with the # character is a comment line
#! Sample  computation

memory 22 gb

molecule Dimer {
0 1
 C  2.200141    0.644872    0.059924
 C  0.727926    0.307851   -0.046263
 O -0.112836    1.210532   -0.109301
 N  0.386320   -0.998514   -0.065832
 H -0.596736   -1.236159   -0.142294
 H  1.082039   -1.718967   -0.032425
 C  3.176378   -0.521189    0.124015
 H  3.120147   -1.141495   -0.770846
 H  4.197757   -0.152216    0.197803
 H  2.995070   -1.149459    0.996397
 H  2.419449    1.286729   -0.794103
 H  2.296473    1.278874    0.942213

 --
0 1
 C -3.566985   -0.046016    0.339486
 O -2.387812   -0.330433   -0.399547
 H -4.206609   -0.922947    0.281205
 H -4.106279    0.805321   -0.079259
 H -3.347759    0.157227    1.389751
 H -1.777359    0.428788   -0.319806

units angstrom

no_reorient
symmetry c1
}

set globals{
  basis jun-cc-pvtz
}

energy('sapt0')

--------------------------------------------------------------------------

  //              Dimer HF             //
    Molecular point group: c1
  Charge       = 0
  Multiplicity = 1
  Basis Set: JUN-CC-PVTZ
    Blend: JUN-CC-PVTZ
  Basis Set: (JUN-CC-PVTZ AUX)
    Blend: JUN-CC-PVTZ-JKFIT
  @DF-RHF Final Energy:  -362.20928335203712
    Total Energy =                       -362.2092833520371187
  //            Monomer A HF           //
    Molecular point group: c1
  Multiplicity = 1
  Basis Set: JUN-CC-PVTZ
    Blend: JUN-CC-PVTZ
  Basis Set: (JUN-CC-PVTZ AUX)
    Blend: JUN-CC-PVTZ-JKFIT
  @DF-RHF Final Energy:  -247.10670841550899
    Total Energy =                       -247.1067084155089901
  //            Monomer B HF           //
    Molecular point group: c1

    Geometry (in Angstrom), charge = 0, multiplicity = 1:

       Center              X                  Y                   Z               Mass
    ------------   -----------------  -----------------  -----------------  -----------------
      Gh(C)           2.219612301057     0.622619650372     0.075656866590    12.000000000000
      Gh(C)           0.747397301057     0.285598650372    -0.030530133410    12.000000000000
      Gh(O)          -0.093364698943     1.188279650372    -0.093568133410    15.994914619570
      Gh(N)           0.405791301057    -1.020766349628    -0.050099133410    14.003074004430
      Gh(H)          -0.577264698943    -1.258411349628    -0.126561133410     1.007825032230
      Gh(H)           1.101510301057    -1.741219349628    -0.016692133410     1.007825032230
      Gh(C)           3.195849301057    -0.543441349628     0.139747866590    12.000000000000
      Gh(H)           3.139618301057    -1.163747349628    -0.755113133410     1.007825032230
      Gh(H)           4.217228301057    -0.174468349628     0.213535866590     1.007825032230
      Gh(H)           3.014541301057    -1.171711349628     1.012129866590     1.007825032230
      Gh(H)           2.438920301057     1.264476650372    -0.778370133410     1.007825032230
      Gh(H)           2.315944301057     1.256621650372     0.957945866590     1.007825032230
         C           -3.547513698943    -0.068268349628     0.355218866590    12.000000000000
         O           -2.368340698943    -0.352685349628    -0.383814133410    15.994914619570
         H           -4.187137698943    -0.945199349628     0.296937866590     1.007825032230
         H           -4.086807698943     0.783068650372    -0.063526133410     1.007825032230
         H           -3.328287698943     0.134974650372     1.405483866590     1.007825032230
         H           -1.757887698943     0.406535650372    -0.304073133410     1.007825032230

  Charge       = 0
  Multiplicity = 1
  Basis Set: JUN-CC-PVTZ
    Blend: JUN-CC-PVTZ
  Basis Set: (JUN-CC-PVTZ AUX)
    Blend: JUN-CC-PVTZ-JKFIT

    Orbital Energies [Eh]
    ---------------------

    Doubly Occupied:

       1A    -20.560352     2A    -11.270802     3A     -1.353424
       4A     -0.924728     5A     -0.687562     6A     -0.620274
       7A     -0.593948     8A     -0.502661     9A     -0.450790

  @DF-RHF Final Energy:  -115.09087319045496

   => Energetics <=

    Nuclear Repulsion Energy =             40.2421289015313306
    One-Electron Energy =                -236.7369199899739556
    Two-Electron Energy =                  81.4039178979876823
    Total Energy =                       -115.0908731904549569

  Dipole Moment: [D]
     X:    -0.3305      Y:     1.5084      Z:     0.9412     Total:     1.8084

    SAPT Results
  --------------------------------------------------------------------------------------------------------
    Electrostatics                -31.20755205 [mEh]     -19.58303456 [kcal/mol]     -81.93541662 [kJ/mol]
      Elst10,r                    -31.20755205 [mEh]     -19.58303456 [kcal/mol]     -81.93541662 [kJ/mol]

    Exchange                       29.80207238 [mEh]      18.70108275 [kcal/mol]      78.24533025 [kJ/mol]
      Exch10                       29.80207238 [mEh]      18.70108275 [kcal/mol]      78.24533025 [kJ/mol]
      Exch10(S^2)                  29.50909180 [mEh]      18.51723466 [kcal/mol]      77.47610984 [kJ/mol]

    Induction                     -10.29626640 [mEh]      -6.46100471 [kcal/mol]     -27.03284371 [kJ/mol]
      Ind20,r                     -15.23690844 [mEh]      -9.56130440 [kcal/mol]     -40.00449759 [kJ/mol]
      Exch-Ind20,r                  9.10053948 [mEh]       5.71067474 [kcal/mol]      23.89346312 [kJ/mol]
      delta HF,r (2)               -4.15989745 [mEh]      -2.61037506 [kcal/mol]     -10.92180924 [kJ/mol]

    Dispersion                     -9.00787043 [mEh]      -5.65252403 [kcal/mol]     -23.65016056 [kJ/mol]
      Disp20                      -11.22669315 [mEh]      -7.04485631 [kcal/mol]     -29.47567880 [kJ/mol]
      Exch-Disp20                   2.21882272 [mEh]       1.39233228 [kcal/mol]       5.82551825 [kJ/mol]
      Disp20 (SS)                  -5.61334657 [mEh]      -3.52242816 [kcal/mol]     -14.73783940 [kJ/mol]
      Disp20 (OS)                  -5.61334657 [mEh]      -3.52242816 [kcal/mol]     -14.73783940 [kJ/mol]
      Exch-Disp20 (SS)              1.38549210 [mEh]       0.86940942 [kcal/mol]       3.63760900 [kJ/mol]
      Exch-Disp20 (OS)              0.83333062 [mEh]       0.52292286 [kcal/mol]       2.18790925 [kJ/mol]

  Total HF                        -11.70174607 [mEh]      -7.34295652 [kcal/mol]     -30.72293008 [kJ/mol]
  Total SAPT0                     -20.70961650 [mEh]     -12.99548055 [kcal/mol]     -54.37309064 [kJ/mol]

  Special recipe for scaled SAPT0 (see Manual):
    Electrostatics sSAPT0         -31.20755205 [mEh]     -19.58303456 [kcal/mol]     -81.93541662 [kJ/mol]
    Exchange sSAPT0                29.80207238 [mEh]      18.70108275 [kcal/mol]      78.24533025 [kJ/mol]
    Induction sSAPT0              -10.02250253 [mEh]      -6.28921529 [kcal/mol]     -26.31407676 [kJ/mol]
    Dispersion sSAPT0              -8.94112345 [mEh]      -5.61063967 [kcal/mol]     -23.47491639 [kJ/mol]
  Total sSAPT0                    -20.36910565 [mEh]     -12.78180677 [kcal/mol]     -53.47907952 [kJ/mol]
  --------------------------------------------------------------------------------------------------------

*** Psi4 exiting successfully. Buy a developer a beer!
