                               Psi4 1.3.2 release

  ==> Input File <==

--------------------------------------------------------------------------
# Any line starting with the # character is a comment line
#! Sample  computation

memory 22 gb

molecule Dimer {
0 1
 C -2.375447    0.238577    0.335691
 O -1.687358   -0.322683    1.184414
 N -2.056813    0.340029   -0.969221
 H -2.679875    0.802484   -1.604996
 H -1.187847   -0.069575   -1.296885
 H -3.330538    0.714736    0.592839

 --
0 1
 C  2.053694    0.221476    0.587331
 C  1.737257   -1.017369   -0.233481
 H  1.516974    0.161627    1.537852
 H  3.120276    0.206097    0.825710
 O  0.354151   -1.119598   -0.563240
 H  2.269083   -0.984375   -1.185396
 H  2.062020   -1.915120    0.300432
 H -0.166169   -1.031786    0.257769
 C  1.693587    1.514419   -0.132463
 H  0.624604    1.560322   -0.334877
 H  1.959622    2.385223    0.465459
 H  2.220654    1.585790   -1.085212

units angstrom

no_reorient
symmetry c1
}

set globals{
  basis jun-cc-pvtz
}

energy('sapt0')

--------------------------------------------------------------------------

  //              Dimer HF             //
    Molecular point group: c1
  Charge       = 0
  Multiplicity = 1
  Basis Set: JUN-CC-PVTZ
    Blend: JUN-CC-PVTZ
  Basis Set: (JUN-CC-PVTZ AUX)
    Blend: JUN-CC-PVTZ-JKFIT
  @DF-RHF Final Energy:  -362.20397544751518
    Total Energy =                       -362.2039754475151767
  //            Monomer A HF           //
    Molecular point group: c1
  Multiplicity = 1
  Basis Set: JUN-CC-PVTZ
    Blend: JUN-CC-PVTZ
  Basis Set: (JUN-CC-PVTZ AUX)
    Blend: JUN-CC-PVTZ-JKFIT
  @DF-RHF Final Energy:  -169.00284610175058
    Total Energy =                       -169.0028461017505776
  //            Monomer B HF           //
    Molecular point group: c1

    Geometry (in Angstrom), charge = 0, multiplicity = 1:

       Center              X                  Y                   Z               Mass
    ------------   -----------------  -----------------  -----------------  -----------------
      Gh(C)          -2.314938306687     0.270746378232     0.321328170122    12.000000000000
      Gh(O)          -1.626849306687    -0.290513621768     1.170051170122    15.994914619570
      Gh(N)          -1.996304306687     0.372198378232    -0.983583829878    14.003074004430
      Gh(H)          -2.619366306687     0.834653378232    -1.619358829878     1.007825032230
      Gh(H)          -1.127338306687    -0.037405621768    -1.311247829878     1.007825032230
      Gh(H)          -3.270029306687     0.746905378232     0.578476170122     1.007825032230
         C            2.114202693313     0.253645378232     0.572968170122    12.000000000000
         C            1.797765693313    -0.985199621768    -0.247843829878    12.000000000000
         H            1.577482693313     0.193796378232     1.523489170122     1.007825032230
         H            3.180784693313     0.238266378232     0.811347170122     1.007825032230
         O            0.414659693313    -1.087428621768    -0.577602829878    15.994914619570
         H            2.329591693313    -0.952205621768    -1.199758829878     1.007825032230
         H            2.122528693313    -1.882950621768     0.286069170122     1.007825032230
         H           -0.105660306687    -0.999616621768     0.243406170122     1.007825032230
         C            1.754095693313     1.546588378232    -0.146825829878    12.000000000000
         H            0.685112693313     1.592491378232    -0.349239829878     1.007825032230
         H            2.020130693313     2.417392378232     0.451096170122     1.007825032230
         H            2.281162693313     1.617959378232    -1.099574829878     1.007825032230

  Charge       = 0
  Multiplicity = 1
  Basis Set: JUN-CC-PVTZ
    Blend: JUN-CC-PVTZ
  Basis Set: (JUN-CC-PVTZ AUX)
    Blend: JUN-CC-PVTZ-JKFIT

    Orbital Energies [Eh]
    ---------------------

    Doubly Occupied:

       1A    -20.555172     2A    -11.271144     3A    -11.223790
       4A    -11.211116     5A     -1.352363     6A     -1.051982
       7A     -0.920918     8A     -0.812322     9A     -0.668375
      10A     -0.638642    11A     -0.631116    12A     -0.565956
      13A     -0.534323    14A     -0.518251    15A     -0.486930
      16A     -0.470444    17A     -0.437039

  @DF-RHF Final Energy:  -193.19091630046833

   => Energetics <=

    Nuclear Repulsion Energy =            132.8162249827294374
    One-Electron Energy =                -525.3145157256024049
    Two-Electron Energy =                 199.3073744424046652
    Total Energy =                       -193.1909163004683307

  Dipole Moment: [D]
     X:     0.7612      Y:     0.3920      Z:     1.6293     Total:     1.8406

    SAPT Results
  --------------------------------------------------------------------------------------------------------
    Electrostatics                -29.27771921 [mEh]     -18.37204618 [kcal/mol]     -76.86864120 [kJ/mol]
      Elst10,r                    -29.27771921 [mEh]     -18.37204618 [kcal/mol]     -76.86864120 [kJ/mol]

    Exchange                       28.40647632 [mEh]      17.82533301 [kcal/mol]      74.58119330 [kJ/mol]
      Exch10                       28.40647632 [mEh]      17.82533301 [kcal/mol]      74.58119330 [kJ/mol]
      Exch10(S^2)                  28.15993360 [mEh]      17.67062512 [kcal/mol]      73.93389548 [kJ/mol]

    Induction                      -9.34180240 [mEh]      -5.86206951 [kcal/mol]     -24.52689883 [kJ/mol]
      Ind20,r                     -14.14862409 [mEh]      -8.87839566 [kcal/mol]     -37.14720742 [kJ/mol]
      Exch-Ind20,r                  8.54606626 [mEh]       5.36273754 [kcal/mol]      22.43769387 [kJ/mol]
      delta HF,r (2)               -3.73924457 [mEh]      -2.34641139 [kcal/mol]      -9.81738527 [kJ/mol]

    Dispersion                    -10.38991394 [mEh]      -6.51976943 [kcal/mol]     -27.27871529 [kJ/mol]
      Disp20                      -12.60678417 [mEh]      -7.91087650 [kcal/mol]     -33.09910728 [kJ/mol]
      Exch-Disp20                   2.21687023 [mEh]       1.39110707 [kcal/mol]       5.82039200 [kJ/mol]
      Disp20 (SS)                  -6.30339209 [mEh]      -3.95543825 [kcal/mol]     -16.54955364 [kJ/mol]
      Disp20 (OS)                  -6.30339209 [mEh]      -3.95543825 [kcal/mol]     -16.54955364 [kJ/mol]
      Exch-Disp20 (SS)              1.38723708 [mEh]       0.87050441 [kcal/mol]       3.64219046 [kJ/mol]
      Exch-Disp20 (OS)              0.82963315 [mEh]       0.52060266 [kcal/mol]       2.17820154 [kJ/mol]

  Total HF                        -10.21304530 [mEh]      -6.40878268 [kcal/mol]     -26.81434673 [kJ/mol]
  Total SAPT0                     -20.60295923 [mEh]     -12.92855211 [kcal/mol]     -54.09306202 [kJ/mol]

  Special recipe for scaled SAPT0 (see Manual):
    Electrostatics sSAPT0         -29.27771921 [mEh]     -18.37204618 [kcal/mol]     -76.86864120 [kJ/mol]
    Exchange sSAPT0                28.40647632 [mEh]      17.82533301 [kcal/mol]      74.58119330 [kJ/mol]
    Induction sSAPT0               -9.11536675 [mEh]      -5.71997900 [kcal/mol]     -23.93239212 [kJ/mol]
    Dispersion sSAPT0             -10.33117598 [mEh]      -6.48291081 [kcal/mol]     -27.12449881 [kJ/mol]
  Total sSAPT0                    -20.31778563 [mEh]     -12.74960297 [kcal/mol]     -53.34433883 [kJ/mol]
  --------------------------------------------------------------------------------------------------------

*** Psi4 exiting successfully. Buy a developer a beer!
