                               Psi4 1.3.2 release

  ==> Input File <==

--------------------------------------------------------------------------
# Any line starting with the # character is a comment line
#! Sample  computation

memory 22 gb

molecule Dimer {
0 1
 C 3.287738    0.067972   -0.312428
 C 1.798008    0.298941   -0.185865
 O 0.992130   -0.633245   -0.263466
 N 1.404725    1.579676   -0.004340
 H 0.410939    1.781193    0.029540
 H 2.077081    2.322470    0.033678
 C 3.710092   -1.245925    0.329956
 H 3.139855   -2.068664   -0.093883
 H 4.770439   -1.428893    0.165480
 H 3.527035   -1.227928    1.403423
 H 3.510003    0.049626   -1.382046
 H 3.835423    0.909581    0.113891

 --
0 1
 C -3.143225   -0.781965    0.440061
 C -2.313355    0.414729    0.873872
 H -2.471355   -1.625628    0.261519
 H -3.794567   -1.067328    1.270430
 O -1.373327    0.810577   -0.121471
 H -2.960142    1.278206    1.037445
 H -1.799781    0.195370    1.815550
 H -0.715224    0.091956   -0.211952
 C -3.968838   -0.493798   -0.806547
 H -3.323695   -0.194440   -1.630368
 H -4.538049   -1.369373   -1.116322
 H -4.673982    0.317738   -0.620806

units angstrom

no_reorient
symmetry c1
}

set globals{
  basis jun-cc-pvtz
}

energy('sapt0')

--------------------------------------------------------------------------

  //              Dimer HF             //
    Molecular point group: c1
  Charge       = 0
  Multiplicity = 1
  Basis Set: JUN-CC-PVTZ
    Blend: JUN-CC-PVTZ
  Basis Set: (JUN-CC-PVTZ AUX)
    Blend: JUN-CC-PVTZ-JKFIT
  @DF-RHF Final Energy:  -440.31096897542795
    Total Energy =                       -440.3109689754279543
  //            Monomer A HF           //
    Molecular point group: c1
  Multiplicity = 1
  Basis Set: JUN-CC-PVTZ
    Blend: JUN-CC-PVTZ
  Basis Set: (JUN-CC-PVTZ AUX)
    Blend: JUN-CC-PVTZ-JKFIT
  @DF-RHF Final Energy:  -247.10882774967305
    Total Energy =                       -247.1088277496730257
  //            Monomer B HF           //
    Molecular point group: c1

    Geometry (in Angstrom), charge = 0, multiplicity = 1:

       Center              X                  Y                   Z               Mass
    ------------   -----------------  -----------------  -----------------  -----------------
      Gh(C)           3.265284794374     0.052765574981    -0.304425429801    12.000000000000
      Gh(C)           1.775554794374     0.283734574981    -0.177862429801    12.000000000000
      Gh(O)           0.969676794374    -0.648451425019    -0.255463429801    15.994914619570
      Gh(N)           1.382271794374     1.564469574981     0.003662570199    14.003074004430
      Gh(H)           0.388485794374     1.765986574981     0.037542570199     1.007825032230
      Gh(H)           2.054627794374     2.307263574981     0.041680570199     1.007825032230
      Gh(C)           3.687638794374    -1.261131425019     0.337958570199    12.000000000000
      Gh(H)           3.117401794374    -2.083870425019    -0.085880429801     1.007825032230
      Gh(H)           4.747985794374    -1.444099425019     0.173482570199     1.007825032230
      Gh(H)           3.504581794374    -1.243134425019     1.411425570199     1.007825032230
      Gh(H)           3.487549794374     0.034419574981    -1.374043429801     1.007825032230
      Gh(H)           3.812969794374     0.894374574981     0.121893570199     1.007825032230
         C           -3.165678205626    -0.797171425019     0.448063570199    12.000000000000
         C           -2.335808205626     0.399522574981     0.881874570199    12.000000000000
         H           -2.493808205626    -1.640834425019     0.269521570199     1.007825032230
         H           -3.817020205626    -1.082534425019     1.278432570199     1.007825032230
         O           -1.395780205626     0.795370574981    -0.113468429801    15.994914619570
         H           -2.982595205626     1.262999574981     1.045447570199     1.007825032230
         H           -1.822234205626     0.180163574981     1.823552570199     1.007825032230
         H           -0.737677205626     0.076749574981    -0.203949429801     1.007825032230
         C           -3.991291205626    -0.509004425019    -0.798544429801    12.000000000000
         H           -3.346148205626    -0.209646425019    -1.622365429801     1.007825032230
         H           -4.560502205626    -1.384579425019    -1.108319429801     1.007825032230
         H           -4.696435205626     0.302531574981    -0.612803429801     1.007825032230

  Charge       = 0
  Multiplicity = 1
  Basis Set: JUN-CC-PVTZ
    Blend: JUN-CC-PVTZ
  Basis Set: (JUN-CC-PVTZ AUX)
    Blend: JUN-CC-PVTZ-JKFIT

    Orbital Energies [Eh]
    ---------------------

    Doubly Occupied:

       1A    -20.556362     2A    -11.271349     3A    -11.221399
       4A    -11.208498     5A     -1.352892     6A     -1.050617
       7A     -0.918815     8A     -0.809828     9A     -0.675310
      10A     -0.638388    11A     -0.623254    12A     -0.564541
      13A     -0.529667    14A     -0.521418    15A     -0.484686
      16A     -0.470717    17A     -0.436350

  @DF-RHF Final Energy:  -193.19089203802909

   => Energetics <=

    Nuclear Repulsion Energy =            132.7846873409944806
    One-Electron Energy =                -525.2829733975631825
    Two-Electron Energy =                 199.3073940185396111
    Total Energy =                       -193.1908920380290908

  Dipole Moment: [D]
     X:    -0.0841      Y:    -1.5743      Z:     0.8745     Total:     1.8029

    SAPT Results
  --------------------------------------------------------------------------------------------------------
    Electrostatics                -30.99702356 [mEh]     -19.45092594 [kcal/mol]     -81.38267414 [kJ/mol]
      Elst10,r                    -30.99702356 [mEh]     -19.45092594 [kcal/mol]     -81.38267414 [kJ/mol]

    Exchange                       29.98232380 [mEh]      18.81419223 [kcal/mol]      78.71858030 [kJ/mol]
      Exch10                       29.98232380 [mEh]      18.81419223 [kcal/mol]      78.71858030 [kJ/mol]
      Exch10(S^2)                  29.67799237 [mEh]      18.62322138 [kcal/mol]      77.91955824 [kJ/mol]

    Induction                     -10.23448797 [mEh]      -6.42223816 [kcal/mol]     -26.87064447 [kJ/mol]
      Ind20,r                     -15.37333343 [mEh]      -9.64691237 [kcal/mol]     -40.36268136 [kJ/mol]
      Exch-Ind20,r                  9.28096784 [mEh]       5.82389525 [kcal/mol]      24.36717772 [kJ/mol]
      delta HF,r (2)               -4.14212239 [mEh]      -2.59922104 [kcal/mol]     -10.87514083 [kJ/mol]

    Dispersion                     -9.57347605 [mEh]      -6.00744692 [kcal/mol]     -25.13515791 [kJ/mol]
      Disp20                      -11.86718642 [mEh]      -7.44677190 [kcal/mol]     -31.15729364 [kJ/mol]
      Exch-Disp20                   2.29371036 [mEh]       1.43932498 [kcal/mol]       6.02213573 [kJ/mol]
      Disp20 (SS)                  -5.93359321 [mEh]      -3.72338595 [kcal/mol]     -15.57864682 [kJ/mol]
      Disp20 (OS)                  -5.93359321 [mEh]      -3.72338595 [kcal/mol]     -15.57864682 [kJ/mol]
      Exch-Disp20 (SS)              1.43267114 [mEh]       0.89901472 [kcal/mol]       3.76147757 [kJ/mol]
      Exch-Disp20 (OS)              0.86103922 [mEh]       0.54031027 [kcal/mol]       2.26065816 [kJ/mol]

  Total HF                        -11.24918773 [mEh]      -7.05897187 [kcal/mol]     -29.53473831 [kJ/mol]
  Total SAPT0                     -20.82266378 [mEh]     -13.06641879 [kcal/mol]     -54.66989621 [kJ/mol]

  Special recipe for scaled SAPT0 (see Manual):
    Electrostatics sSAPT0         -30.99702356 [mEh]     -19.45092594 [kcal/mol]     -81.38267414 [kJ/mol]
    Exchange sSAPT0                29.98232380 [mEh]      18.81419223 [kcal/mol]      78.71858030 [kJ/mol]
    Induction sSAPT0               -9.94603657 [mEh]      -6.24123218 [kcal/mol]     -26.11331542 [kJ/mol]
    Dispersion sSAPT0              -9.50218780 [mEh]      -5.96271287 [kcal/mol]     -24.94799063 [kJ/mol]
  Total sSAPT0                    -20.46292412 [mEh]     -12.84067875 [kcal/mol]     -53.72539988 [kJ/mol]
  --------------------------------------------------------------------------------------------------------

*** Psi4 exiting successfully. Buy a developer a beer!
