                               Psi4 1.3.2 release

  ==> Input File <==

--------------------------------------------------------------------------
# Any line starting with the # character is a comment line
#! Sample  computation

memory 22 gb

molecule Dimer {
0 1
 C 3.707361   -0.572285    0.019936
 C 2.260290   -0.155227   -0.034295
 O 1.354655   -0.978982    0.121398
 N 2.016090    1.154868   -0.260634
 H 4.397776    0.257589   -0.110544
 H 3.891775   -1.050460    0.979374
 H 3.880426   -1.312887   -0.758029
 H 1.051265    1.464945   -0.309669
 H 2.767477    1.803166   -0.400406

 --
0 1
 C -2.811897   -0.490465    0.540559
 C -1.862172    0.681154    0.725366
 H -2.244512   -1.419036    0.644722
 H -3.541017   -0.473049    1.354958
 O -0.823923    0.694861   -0.250733
 H -2.401586    1.621858    0.603961
 H -1.435714    0.665209    1.733457
 H -0.259148   -0.090128   -0.100252
 C -3.520908   -0.455501   -0.806586
 H -2.796655   -0.458375   -1.618952
 H -4.179553   -1.314247   -0.930331
 H -4.125055    0.448260   -0.899050

units angstrom

no_reorient
symmetry c1
}

set globals{
  basis jun-cc-pvtz
}

energy('sapt0')

--------------------------------------------------------------------------

  //              Dimer HF             //
    Molecular point group: c1
  Charge       = 0
  Multiplicity = 1
  Basis Set: JUN-CC-PVTZ
    Blend: JUN-CC-PVTZ
  Basis Set: (JUN-CC-PVTZ AUX)
    Blend: JUN-CC-PVTZ-JKFIT
  @DF-RHF Final Energy:  -401.26341925512298
    Total Energy =                       -401.2634192551229262
  //            Monomer A HF           //
    Molecular point group: c1
  Multiplicity = 1
  Basis Set: JUN-CC-PVTZ
    Blend: JUN-CC-PVTZ
  Basis Set: (JUN-CC-PVTZ AUX)
    Blend: JUN-CC-PVTZ-JKFIT
  @DF-RHF Final Energy:  -208.06108468597543
    Total Energy =                       -208.0610846859754304
  //            Monomer B HF           //
    Molecular point group: c1

    Geometry (in Angstrom), charge = 0, multiplicity = 1:

       Center              X                  Y                   Z               Mass
    ------------   -----------------  -----------------  -----------------  -----------------
      Gh(C)           3.665722218609    -0.571137053178     0.021513734220    12.000000000000
      Gh(C)           2.218651218609    -0.154079053178    -0.032717265780    12.000000000000
      Gh(O)           1.313016218609    -0.977834053178     0.122975734220    15.994914619570
      Gh(N)           1.974451218609     1.156015946822    -0.259056265780    14.003074004430
      Gh(H)           4.356137218609     0.258736946822    -0.108966265780     1.007825032230
      Gh(H)           3.850136218609    -1.049312053178     0.980951734220     1.007825032230
      Gh(H)           3.838787218609    -1.311739053178    -0.756451265780     1.007825032230
      Gh(H)           1.009626218609     1.466092946822    -0.308091265780     1.007825032230
      Gh(H)           2.725838218609     1.804313946822    -0.398828265780     1.007825032230
         C           -2.853535781391    -0.489317053178     0.542136734220    12.000000000000
         C           -1.903810781391     0.682301946822     0.726943734220    12.000000000000
         H           -2.286150781391    -1.417888053178     0.646299734220     1.007825032230
         H           -3.582655781391    -0.471901053178     1.356535734220     1.007825032230
         O           -0.865561781391     0.696008946822    -0.249155265780    15.994914619570
         H           -2.443224781391     1.623005946822     0.605538734220     1.007825032230
         H           -1.477352781391     0.666356946822     1.735034734220     1.007825032230
         H           -0.300786781391    -0.088980053178    -0.098674265780     1.007825032230
         C           -3.562546781391    -0.454353053178    -0.805008265780    12.000000000000
         H           -2.838293781391    -0.457227053178    -1.617374265780     1.007825032230
         H           -4.221191781391    -1.313099053178    -0.928753265780     1.007825032230
         H           -4.166693781391     0.449407946822    -0.897472265780     1.007825032230

  Charge       = 0
  Multiplicity = 1
  Basis Set: JUN-CC-PVTZ
    Blend: JUN-CC-PVTZ
  Basis Set: (JUN-CC-PVTZ AUX)
    Blend: JUN-CC-PVTZ-JKFIT

    Orbital Energies [Eh]
    ---------------------

    Doubly Occupied:

       1A    -20.556260     2A    -11.271333     3A    -11.221389
       4A    -11.208510     5A     -1.352748     6A     -1.050622
       7A     -0.918872     8A     -0.809898     9A     -0.675143
      10A     -0.638384    11A     -0.623402    12A     -0.564556
      13A     -0.529638    14A     -0.521329    15A     -0.484687
      16A     -0.470614    17A     -0.436340

  @DF-RHF Final Energy:  -193.19090468570778

   => Energetics <=

    Nuclear Repulsion Energy =            132.7851536737248637
    One-Electron Energy =                -525.2846572451458087
    Two-Electron Energy =                 199.3085988857131952
    Total Energy =                       -193.1909046857077783

  Dipole Moment: [D]
     X:    -0.3350      Y:    -1.2702      Z:     1.2313     Total:     1.8005

    SAPT Results
  --------------------------------------------------------------------------------------------------------
    Electrostatics                -31.18349080 [mEh]     -19.56793590 [kcal/mol]     -81.87224381 [kJ/mol]
      Elst10,r                    -31.18349080 [mEh]     -19.56793590 [kcal/mol]     -81.87224381 [kJ/mol]

    Exchange                       30.07550088 [mEh]      18.87266173 [kcal/mol]      78.96321668 [kJ/mol]
      Exch10                       30.07550088 [mEh]      18.87266173 [kcal/mol]      78.96321668 [kJ/mol]
      Exch10(S^2)                  29.77226520 [mEh]      18.68237847 [kcal/mol]      78.16707152 [kJ/mol]

    Induction                     -10.32189352 [mEh]      -6.47708597 [kcal/mol]     -27.10012771 [kJ/mol]
      Ind20,r                     -15.41562175 [mEh]      -9.67344870 [kcal/mol]     -40.47370934 [kJ/mol]
      Exch-Ind20,r                  9.26047234 [mEh]       5.81103412 [kcal/mol]      24.31336677 [kJ/mol]
      delta HF,r (2)               -4.16674410 [mEh]      -2.61467140 [kcal/mol]     -10.93978513 [kJ/mol]

    Dispersion                     -9.48344408 [mEh]      -5.95095101 [kcal/mol]     -24.89877901 [kJ/mol]
      Disp20                      -11.76808731 [mEh]      -7.38458627 [kcal/mol]     -30.89710897 [kJ/mol]
      Exch-Disp20                   2.28464322 [mEh]       1.43363527 [kcal/mol]       5.99832996 [kJ/mol]
      Disp20 (SS)                  -5.88404365 [mEh]      -3.69229314 [kcal/mol]     -15.44855448 [kJ/mol]
      Disp20 (OS)                  -5.88404365 [mEh]      -3.69229314 [kcal/mol]     -15.44855448 [kJ/mol]
      Exch-Disp20 (SS)              1.42651333 [mEh]       0.89515063 [kcal/mol]       3.74531023 [kJ/mol]
      Exch-Disp20 (OS)              0.85812989 [mEh]       0.53848464 [kcal/mol]       2.25301973 [kJ/mol]

  Total HF                        -11.42988344 [mEh]      -7.17236014 [kcal/mol]     -30.00915484 [kJ/mol]
  Total SAPT0                     -20.91332752 [mEh]     -13.12331115 [kcal/mol]     -54.90793385 [kJ/mol]

  Special recipe for scaled SAPT0 (see Manual):
    Electrostatics sSAPT0         -31.18349080 [mEh]     -19.56793590 [kcal/mol]     -81.87224381 [kJ/mol]
    Exchange sSAPT0                30.07550088 [mEh]      18.87266173 [kcal/mol]      78.96321668 [kJ/mol]
    Induction sSAPT0              -10.03604321 [mEh]      -6.29771219 [kcal/mol]     -26.34962782 [kJ/mol]
    Dispersion sSAPT0              -9.41292220 [mEh]      -5.90669785 [kcal/mol]     -24.71362382 [kJ/mol]
  Total sSAPT0                    -20.55695533 [mEh]     -12.89968422 [kcal/mol]     -53.97227878 [kJ/mol]
  --------------------------------------------------------------------------------------------------------

*** Psi4 exiting successfully. Buy a developer a beer!
