                               Psi4 1.3.2 release

  ==> Input File <==

--------------------------------------------------------------------------
# Any line starting with the # character is a comment line
#! Sample  computation

memory 22 gb

molecule Dimer {
0 1
 C  3.452390   -0.918375    0.000008
 C  2.701365    0.400918    0.000047
 C  1.206677    0.220650   -0.000012
 O  0.639423   -0.857603   -0.000052
 O  0.564234    1.395100   -0.000014
 H  3.196974   -1.508323   -0.877730
 H  4.526948   -0.743760    0.000067

H  3.196892   -1.508419    0.877658
 H  2.953789    1.008873   -0.870335

H  2.953726    1.008783    0.870511
 H -0.407819    1.214431   -0.000057

 --
0 1
 H -1.719249   -1.041485   -0.000051
 C -3.918822   -0.700401    0.000039
 C -2.493270   -0.261101   -0.000018
 O -2.154247    0.914815   -0.000008
 H -4.590019    0.153065    0.000080
 H -4.098315   -1.325890   -0.875713
 H -4.098243   -1.325919    0.875783

units angstrom

no_reorient
symmetry c1
}

set globals{
  basis jun-cc-pvtz
}

energy('sapt0')

--------------------------------------------------------------------------

  //              Dimer HF             //
    Molecular point group: c1
  Charge       = 0
  Multiplicity = 1
  Basis Set: JUN-CC-PVTZ
    Blend: JUN-CC-PVTZ
  Basis Set: (JUN-CC-PVTZ AUX)
    Blend: JUN-CC-PVTZ-JKFIT
  @DF-RHF Final Energy:  -419.93951433965844
    Total Energy =                       -419.9395143396584444
  //            Monomer A HF           //
    Molecular point group: c1
  Multiplicity = 1
  Basis Set: JUN-CC-PVTZ
    Blend: JUN-CC-PVTZ
  Basis Set: (JUN-CC-PVTZ AUX)
    Blend: JUN-CC-PVTZ-JKFIT
  @DF-RHF Final Energy:  -266.95142159544065
    Total Energy =                       -266.9514215954406495
  //            Monomer B HF           //
    Molecular point group: c1

    Geometry (in Angstrom), charge = 0, multiplicity = 1:

       Center              X                  Y                   Z               Mass
    ------------   -----------------  -----------------  -----------------  -----------------
      Gh(C)           3.468439562671    -0.952504383203     0.000009702116    12.000000000000
      Gh(C)           2.717414562671     0.366788616797     0.000048702116    12.000000000000
      Gh(C)           1.222726562671     0.186520616797    -0.000010297884    12.000000000000
      Gh(O)           0.655472562671    -0.891732383203    -0.000050297884    15.994914619570
      Gh(O)           0.580283562671     1.360970616797    -0.000012297884    15.994914619570
      Gh(H)           3.213023562671    -1.542452383203    -0.877728297884     1.007825032230
      Gh(H)           4.542997562671    -0.777889383203     0.000068702116     1.007825032230
      Gh(H)           3.212941562671    -1.542548383203     0.877659702116     1.007825032230
      Gh(H)           2.969838562671     0.974743616797    -0.870333297884     1.007825032230
      Gh(H)           2.969775562671     0.974653616797     0.870512702116     1.007825032230
      Gh(H)          -0.391769437329     1.180301616797    -0.000055297884     1.007825032230
         H           -1.703199437329    -1.075614383203    -0.000049297884     1.007825032230
         C           -3.902772437329    -0.734530383203     0.000040702116    12.000000000000
         C           -2.477220437329    -0.295230383203    -0.000016297884    12.000000000000
         O           -2.138197437329     0.880685616797    -0.000006297884    15.994914619570
         H           -4.573969437329     0.118935616797     0.000081702116     1.007825032230
         H           -4.082265437329    -1.360019383203    -0.875711297884     1.007825032230
         H           -4.082193437329    -1.360048383203     0.875784702116     1.007825032230

  Charge       = 0
  Multiplicity = 1
  Basis Set: JUN-CC-PVTZ
    Blend: JUN-CC-PVTZ
  Basis Set: (JUN-CC-PVTZ AUX)
    Blend: JUN-CC-PVTZ-JKFIT

    Orbital Energies [Eh]
    ---------------------

    Doubly Occupied:

       1A    -20.558966     2A    -11.337349     3A    -11.242688
       4A     -1.384577     5A     -1.026081     6A     -0.805769
       7A     -0.674576     8A     -0.622072     9A     -0.606517
      10A     -0.563552    11A     -0.498771    12A     -0.429593

  @DF-RHF Final Energy:  -152.97491255281537

   => Energetics <=

    Nuclear Repulsion Energy =             69.6782465954354819
    One-Electron Energy =                -345.8052964276326975
    Two-Electron Energy =                 123.1521372793818330
    Total Energy =                       -152.9749125528153684

  Dipole Moment: [D]
     X:    -1.3742      Y:    -3.0562      Z:     0.0000     Total:     3.3509

    SAPT Results
  --------------------------------------------------------------------------------------------------------
    Electrostatics                -27.08626234 [mEh]     -16.99688622 [kcal/mol]     -71.11497196 [kJ/mol]
      Elst10,r                    -27.08626234 [mEh]     -16.99688622 [kcal/mol]     -71.11497196 [kJ/mol]

    Exchange                       24.71166819 [mEh]      15.50680590 [kcal/mol]      64.88047590 [kJ/mol]
      Exch10                       24.71166819 [mEh]      15.50680590 [kcal/mol]      64.88047590 [kJ/mol]
      Exch10(S^2)                  24.48304929 [mEh]      15.36334538 [kcal/mol]      64.28023706 [kJ/mol]

    Induction                     -10.80559726 [mEh]      -6.78061465 [kcal/mol]     -28.37009170 [kJ/mol]
      Ind20,r                     -13.54550830 [mEh]      -8.49993478 [kcal/mol]     -35.56372714 [kJ/mol]
      Exch-Ind20,r                  7.15667612 [mEh]       4.49088206 [kcal/mol]      18.78985056 [kJ/mol]
      delta HF,r (2)               -4.41676508 [mEh]      -2.77156193 [kcal/mol]     -11.59621512 [kJ/mol]

    Dispersion                     -8.05388686 [mEh]      -5.05389031 [kcal/mol]     -21.14547705 [kJ/mol]
      Disp20                       -9.77886463 [mEh]      -6.13633019 [kcal/mol]     -25.67440554 [kJ/mol]
      Exch-Disp20                   1.72497776 [mEh]       1.08243989 [kcal/mol]       4.52892849 [kJ/mol]
      Disp20 (SS)                  -4.88943231 [mEh]      -3.06816510 [kcal/mol]     -12.83720277 [kJ/mol]
      Disp20 (OS)                  -4.88943231 [mEh]      -3.06816510 [kcal/mol]     -12.83720277 [kJ/mol]
      Exch-Disp20 (SS)              1.07703153 [mEh]       0.67584749 [kcal/mol]       2.82774590 [kJ/mol]
      Exch-Disp20 (OS)              0.64794623 [mEh]       0.40659240 [kcal/mol]       1.70118259 [kJ/mol]

  Total HF                        -13.18019140 [mEh]      -8.27069497 [kcal/mol]     -34.60458776 [kJ/mol]
  Total SAPT0                     -21.23407827 [mEh]     -13.32458528 [kcal/mol]     -55.75006481 [kJ/mol]

  Special recipe for scaled SAPT0 (see Manual):
    Electrostatics sSAPT0         -27.08626234 [mEh]     -16.99688622 [kcal/mol]     -71.11497196 [kJ/mol]
    Exchange sSAPT0                24.71166819 [mEh]      15.50680590 [kcal/mol]      64.88047590 [kJ/mol]
    Induction sSAPT0              -10.60323556 [mEh]      -6.65363077 [kcal/mol]     -27.83879114 [kJ/mol]
    Dispersion sSAPT0              -8.00511151 [mEh]      -5.02328331 [kcal/mol]     -21.01741737 [kJ/mol]
  Total sSAPT0                    -20.98294121 [mEh]     -13.16699440 [kcal/mol]     -55.09070457 [kJ/mol]
  --------------------------------------------------------------------------------------------------------

*** Psi4 exiting successfully. Buy a developer a beer!
