                               Psi4 1.3.2 release

  ==> Input File <==

--------------------------------------------------------------------------
# Any line starting with the # character is a comment line
#! Sample  computation

memory 22 gb

molecule Dimer {
0 1
 C -2.245545    0.250337    0.000181
 O -1.808929   -1.004369    0.000115
 O -1.552060    1.246418    0.000302
 H -3.338854    0.274722    0.000111
 H -0.817123   -0.992194    0.000161

 --
0 1
 H 0.823215    1.030730    0.000195
 C 2.935583    0.332552   -0.000275
 C 1.458118    0.133523   -0.000160
 O 0.930522   -0.971189   -0.000171
 H 3.457565   -0.619434   -0.000521
 H 3.214886    0.920577   -0.875835
 H 3.215101    0.920237    0.875448

units angstrom

no_reorient
symmetry c1
}

set globals{
  basis jun-cc-pvtz
}

energy('sapt0')

--------------------------------------------------------------------------

  //              Dimer HF             //
    Molecular point group: c1
  Charge       = 0
  Multiplicity = 1
  Basis Set: JUN-CC-PVTZ
    Blend: JUN-CC-PVTZ
  Basis Set: (JUN-CC-PVTZ AUX)
    Blend: JUN-CC-PVTZ-JKFIT
  @DF-RHF Final Energy:  -341.83073849662480
    Total Energy =                       -341.8307384966248037
  //            Monomer A HF           //
    Molecular point group: c1
  Multiplicity = 1
  Basis Set: JUN-CC-PVTZ
    Blend: JUN-CC-PVTZ
  Basis Set: (JUN-CC-PVTZ AUX)
    Blend: JUN-CC-PVTZ-JKFIT
  @DF-RHF Final Energy:  -188.84145413962406
    Total Energy =                       -188.8414541396240622
  //            Monomer B HF           //
    Molecular point group: c1

    Geometry (in Angstrom), charge = 0, multiplicity = 1:

       Center              X                  Y                   Z               Mass
    ------------   -----------------  -----------------  -----------------  -----------------
      Gh(C)          -2.173446404322     0.267208185974     0.000176087306    12.000000000000
      Gh(O)          -1.736830404322    -0.987497814026     0.000110087306    15.994914619570
      Gh(O)          -1.479961404322     1.263289185974     0.000297087306    15.994914619570
      Gh(H)          -3.266755404322     0.291593185974     0.000106087306     1.007825032230
      Gh(H)          -0.745024404322    -0.975322814026     0.000156087306     1.007825032230
         H            0.895313595678     1.047601185974     0.000190087306     1.007825032230
         C            3.007681595678     0.349423185974    -0.000279912694    12.000000000000
         C            1.530216595678     0.150394185974    -0.000164912694    12.000000000000
         O            1.002620595678    -0.954317814026    -0.000175912694    15.994914619570
         H            3.529663595678    -0.602562814026    -0.000525912694     1.007825032230
         H            3.286984595678     0.937448185974    -0.875839912694     1.007825032230
         H            3.287199595678     0.937108185974     0.875443087306     1.007825032230

  Charge       = 0
  Multiplicity = 1
  Basis Set: JUN-CC-PVTZ
    Blend: JUN-CC-PVTZ
  Basis Set: (JUN-CC-PVTZ AUX)
    Blend: JUN-CC-PVTZ-JKFIT

    Orbital Energies [Eh]
    ---------------------

    Doubly Occupied:

       1A    -20.558949     2A    -11.337361     3A    -11.242647
       4A     -1.384299     5A     -1.026376     6A     -0.805782
       7A     -0.674596     8A     -0.622051     9A     -0.606589
      10A     -0.563565    11A     -0.498568    12A     -0.429677

  @DF-RHF Final Energy:  -152.97484517183597

   => Energetics <=

    Nuclear Repulsion Energy =             69.6845692541813548
    One-Electron Energy =                -345.8179064975201982
    Two-Electron Energy =                 123.1584920715028630
    Total Energy =                       -152.9748451718359661

  Dipole Moment: [D]
     X:     1.8593      Y:     2.7926      Z:     0.0001     Total:     3.3549

    SAPT Results
  --------------------------------------------------------------------------------------------------------
    Electrostatics                -28.56798727 [mEh]     -17.92668266 [kcal/mol]     -75.00524024 [kJ/mol]
      Elst10,r                    -28.56798727 [mEh]     -17.92668266 [kcal/mol]     -75.00524024 [kJ/mol]

    Exchange                       25.95609871 [mEh]      16.28769784 [kcal/mol]      68.14772777 [kJ/mol]
      Exch10                       25.95609871 [mEh]      16.28769784 [kcal/mol]      68.14772777 [kJ/mol]
      Exch10(S^2)                  25.69274334 [mEh]      16.12243985 [kcal/mol]      67.45628834 [kJ/mol]

    Induction                     -11.82729661 [mEh]      -7.42174067 [kcal/mol]     -31.05256296 [kJ/mol]
      Ind20,r                     -14.61174681 [mEh]      -9.16900955 [kcal/mol]     -38.36313598 [kJ/mol]
      Exch-Ind20,r                  7.61355129 [mEh]       4.77757557 [kcal/mol]      19.98937617 [kJ/mol]
      delta HF,r (2)               -4.82910109 [mEh]      -3.03030668 [kcal/mol]     -12.67880315 [kJ/mol]

    Dispersion                     -8.03086959 [mEh]      -5.03944675 [kcal/mol]     -21.08504520 [kJ/mol]
      Disp20                       -9.77894536 [mEh]      -6.13638085 [kcal/mol]     -25.67461750 [kJ/mol]
      Exch-Disp20                   1.74807577 [mEh]       1.09693411 [kcal/mol]       4.58957230 [kJ/mol]
      Disp20 (SS)                  -4.88947268 [mEh]      -3.06819043 [kcal/mol]     -12.83730875 [kJ/mol]
      Disp20 (OS)                  -4.88947268 [mEh]      -3.06819043 [kcal/mol]     -12.83730875 [kJ/mol]
      Exch-Disp20 (SS)              1.09161431 [mEh]       0.68499832 [kcal/mol]       2.86603297 [kJ/mol]
      Exch-Disp20 (OS)              0.65646146 [mEh]       0.41193579 [kcal/mol]       1.72353933 [kJ/mol]

  Total HF                        -14.43918516 [mEh]      -9.06072548 [kcal/mol]     -37.91007543 [kJ/mol]
  Total SAPT0                     -22.47005475 [mEh]     -14.10017223 [kcal/mol]     -58.99512062 [kJ/mol]

  Special recipe for scaled SAPT0 (see Manual):
    Electrostatics sSAPT0         -28.56798727 [mEh]     -17.92668266 [kcal/mol]     -75.00524024 [kJ/mol]
    Exchange sSAPT0                25.95609871 [mEh]      16.28769784 [kcal/mol]      68.14772777 [kJ/mol]
    Induction sSAPT0              -11.59076770 [mEh]      -7.27331654 [kcal/mol]     -30.43155640 [kJ/mol]
    Dispersion sSAPT0              -7.97656241 [mEh]      -5.00536848 [kcal/mol]     -20.94246173 [kJ/mol]
  Total sSAPT0                    -22.17921867 [mEh]     -13.91766984 [kcal/mol]     -58.23153060 [kJ/mol]
  --------------------------------------------------------------------------------------------------------

*** Psi4 exiting successfully. Buy a developer a beer!
