                               Psi4 1.3.2 release

  ==> Input File <==

--------------------------------------------------------------------------
# Any line starting with the # character is a comment line
#! Sample  computation

memory 22 gb

molecule Dimer {
0 1
 C -1.707002   -0.158429   -0.000030
 O -1.003322   -1.152720   -0.000276
 O -1.223712    1.089893    0.000189
 H -0.236164    1.037416    0.000148
 C -3.207229   -0.174553   -0.000015
 H -3.563002   -1.198470   -0.000193
 H -3.575451    0.352952    0.877792

H -3.575473    0.353262   -0.877628

 --
0 1
 H 1.357431   -1.027395    0.000077
 C 3.493006   -0.399872   -0.000017
 C 2.022111   -0.152114    0.000078
 O 1.531394    0.969104    0.000065
 H 4.046017    0.534513   -0.000056
 H 3.753274   -0.996338    0.875698
 H 3.753171   -0.996348   -0.875757

units angstrom

no_reorient
symmetry c1
}

set globals{
  basis jun-cc-pvtz
}

energy('sapt0')

--------------------------------------------------------------------------

  //              Dimer HF             //
    Molecular point group: c1
  Charge       = 0
  Multiplicity = 1
  Basis Set: JUN-CC-PVTZ
    Blend: JUN-CC-PVTZ
  Basis Set: (JUN-CC-PVTZ AUX)
    Blend: JUN-CC-PVTZ-JKFIT
  @DF-RHF Final Energy:  -380.89143309719003
    Total Energy =                       -380.8914330971900313
  //            Monomer A HF           //
    Molecular point group: c1
  Multiplicity = 1
  Basis Set: JUN-CC-PVTZ
    Blend: JUN-CC-PVTZ
  Basis Set: (JUN-CC-PVTZ AUX)
    Blend: JUN-CC-PVTZ-JKFIT
  @DF-RHF Final Energy:  -227.90312554306243
    Total Energy =                       -227.9031255430624299
  //            Monomer B HF           //
    Molecular point group: c1

    Geometry (in Angstrom), charge = 0, multiplicity = 1:

       Center              X                  Y                   Z               Mass
    ------------   -----------------  -----------------  -----------------  -----------------
      Gh(C)          -1.688347685459    -0.176888053404    -0.000029247897    12.000000000000
      Gh(O)          -0.984667685459    -1.171179053404    -0.000275247897    15.994914619570
      Gh(O)          -1.205057685459     1.071433946596     0.000189752103    15.994914619570
      Gh(H)          -0.217509685459     1.018956946596     0.000148752103     1.007825032230
      Gh(C)          -3.188574685459    -0.193012053404    -0.000014247897    12.000000000000
      Gh(H)          -3.544347685459    -1.216929053404    -0.000192247897     1.007825032230
      Gh(H)          -3.556796685459     0.334492946596     0.877792752103     1.007825032230
      Gh(H)          -3.556818685459     0.334802946596    -0.877627247897     1.007825032230
         H            1.376085314541    -1.045854053404     0.000077752103     1.007825032230
         C            3.511660314541    -0.418331053404    -0.000016247897    12.000000000000
         C            2.040765314541    -0.170573053404     0.000078752103    12.000000000000
         O            1.550048314541     0.950644946596     0.000065752103    15.994914619570
         H            4.064671314541     0.516053946596    -0.000055247897     1.007825032230
         H            3.771928314541    -1.014797053404     0.875698752103     1.007825032230
         H            3.771825314541    -1.014807053404    -0.875756247897     1.007825032230

  Charge       = 0
  Multiplicity = 1
  Basis Set: JUN-CC-PVTZ
    Blend: JUN-CC-PVTZ
  Basis Set: (JUN-CC-PVTZ AUX)
    Blend: JUN-CC-PVTZ-JKFIT

    Orbital Energies [Eh]
    ---------------------

    Doubly Occupied:

       1A    -20.558958     2A    -11.337347     3A    -11.242685
       4A     -1.384518     5A     -1.026105     6A     -0.805796
       7A     -0.674578     8A     -0.622055     9A     -0.606518
      10A     -0.563555    11A     -0.498729    12A     -0.429611

  @DF-RHF Final Energy:  -152.97489669009997

   => Energetics <=

    Nuclear Repulsion Energy =             69.6787659700931670
    One-Electron Energy =                -345.8064162458291548
    Two-Electron Energy =                 123.1527535856359776
    Total Energy =                       -152.9748966900999676

  Dipole Moment: [D]
     X:     1.7643      Y:    -2.8496      Z:    -0.0000     Total:     3.3516

    SAPT Results
  --------------------------------------------------------------------------------------------------------
    Electrostatics                -27.36596162 [mEh]     -17.17240018 [kcal/mol]     -71.84932233 [kJ/mol]
      Elst10,r                    -27.36596162 [mEh]     -17.17240018 [kcal/mol]     -71.84932233 [kJ/mol]

    Exchange                       24.89635016 [mEh]      15.62269559 [kcal/mol]      65.36535834 [kJ/mol]
      Exch10                       24.89635016 [mEh]      15.62269559 [kcal/mol]      65.36535834 [kJ/mol]
      Exch10(S^2)                  24.66422673 [mEh]      15.47703594 [kcal/mol]      64.75591835 [kJ/mol]

    Induction                     -10.94125257 [mEh]      -6.86573964 [kcal/mol]     -28.72625466 [kJ/mol]
      Ind20,r                     -13.68247121 [mEh]      -8.58588031 [kcal/mol]     -35.92332320 [kJ/mol]
      Exch-Ind20,r                  7.20020588 [mEh]       4.51819740 [kcal/mol]      18.90413793 [kJ/mol]
      delta HF,r (2)               -4.45898724 [mEh]      -2.79805674 [kcal/mol]     -11.70706939 [kJ/mol]

    Dispersion                     -8.02285776 [mEh]      -5.03441925 [kcal/mol]     -21.06401015 [kJ/mol]
      Disp20                       -9.74855614 [mEh]      -6.11731133 [kcal/mol]     -25.59483061 [kJ/mol]
      Exch-Disp20                   1.72569838 [mEh]       1.08289208 [kcal/mol]       4.53082046 [kJ/mol]
      Disp20 (SS)                  -4.87427807 [mEh]      -3.05865567 [kcal/mol]     -12.79741531 [kJ/mol]
      Disp20 (OS)                  -4.87427807 [mEh]      -3.05865567 [kcal/mol]     -12.79741531 [kJ/mol]
      Exch-Disp20 (SS)              1.07750876 [mEh]       0.67614696 [kcal/mol]       2.82899886 [kJ/mol]
      Exch-Disp20 (OS)              0.64818961 [mEh]       0.40674512 [kcal/mol]       1.70182160 [kJ/mol]

  Total HF                        -13.41086403 [mEh]      -8.41544423 [kcal/mol]     -35.21021865 [kJ/mol]
  Total SAPT0                     -21.43372179 [mEh]     -13.44986348 [kcal/mol]     -56.27422880 [kJ/mol]

  Special recipe for scaled SAPT0 (see Manual):
    Electrostatics sSAPT0         -27.36596162 [mEh]     -17.17240018 [kcal/mol]     -71.84932233 [kJ/mol]
    Exchange sSAPT0                24.89635016 [mEh]      15.62269559 [kcal/mol]      65.36535834 [kJ/mol]
    Induction sSAPT0              -10.73604256 [mEh]      -6.73696842 [kcal/mol]     -28.18747587 [kJ/mol]
    Dispersion sSAPT0              -7.97367437 [mEh]      -5.00355621 [kcal/mol]     -20.93487916 [kJ/mol]
  Total sSAPT0                    -21.17932839 [mEh]     -13.29022921 [kcal/mol]     -55.60631902 [kJ/mol]
  --------------------------------------------------------------------------------------------------------

*** Psi4 exiting successfully. Buy a developer a beer!
