                               Psi4 1.3.2 release

  ==> Input File <==

--------------------------------------------------------------------------
# Any line starting with the # character is a comment line
#! Sample  computation

memory 22 gb

molecule Dimer {
0 1
  C   -1.676709350  -0.155545695   0.000000000
  O   -0.993533620  -1.155786393   0.000000000
  O   -1.173945330   1.080177302   0.000000000
  H   -0.185940107   1.035554940   0.000000000
  C   -3.180974158  -0.156065960   0.000000000
  H   -3.550265591  -1.175547772   0.000000000
  H   -3.549007807   0.375205388  -0.876744631
  H   -3.549007807   0.375205388   0.876744631

 --
0 1
  H    3.818891652  -1.080075720   0.874204506
  H    3.818891652  -1.080075720  -0.874204506
  H    4.153834695   0.443265227   0.000000000
  H    1.423459707  -1.054169526   0.000000000
  C    3.571345996  -0.473637296   0.000000000
  C    2.106241039  -0.190481958   0.000000000
  O    1.641605591   0.930419782   0.000000000

units angstrom

no_reorient
symmetry c1
}

set globals{
  basis jun-cc-pVTZ
  scf_type DF
  freeze_core True
}

energy('sapt0')

--------------------------------------------------------------------------

  //              Dimer HF             //
    Molecular point group: c1
  Charge       = 0
  Multiplicity = 1
  Basis Set: JUN-CC-PVTZ
    Blend: JUN-CC-PVTZ
  Basis Set: (JUN-CC-PVTZ AUX)
    Blend: JUN-CC-PVTZ-JKFIT
  @DF-RHF Final Energy:  -380.89332683891274
    Total Energy =                       -380.8933268389127420
  //            Monomer A HF           //
    Molecular point group: c1
  Multiplicity = 1
  Basis Set: JUN-CC-PVTZ
    Blend: JUN-CC-PVTZ
  Basis Set: (JUN-CC-PVTZ AUX)
    Blend: JUN-CC-PVTZ-JKFIT
  @DF-RHF Final Energy:  -227.90385587159162
    Total Energy =                       -227.9038558715916167
  //            Monomer B HF           //
    Molecular point group: c1

    Geometry (in Angstrom), charge = 0, multiplicity = 1:

       Center              X                  Y                   Z               Mass
    ------------   -----------------  -----------------  -----------------  -----------------
      Gh(C)          -1.713490966586    -0.153491901635     0.000000000000    12.000000000000
      Gh(O)          -1.030315236586    -1.153732599635     0.000000000000    15.994914619570
      Gh(O)          -1.210726946586     1.082231095365     0.000000000000    15.994914619570
      Gh(H)          -0.222721723586     1.037608733365     0.000000000000     1.007825032230
      Gh(C)          -3.217755774586    -0.154012166635     0.000000000000    12.000000000000
      Gh(H)          -3.587047207586    -1.173493978635     0.000000000000     1.007825032230
      Gh(H)          -3.585789423586     0.377259181365    -0.876744631000     1.007825032230
      Gh(H)          -3.585789423586     0.377259181365     0.876744631000     1.007825032230
         H            3.782110035414    -1.078021926635     0.874204506000     1.007825032230
         H            3.782110035414    -1.078021926635    -0.874204506000     1.007825032230
         H            4.117053078414     0.445319020365     0.000000000000     1.007825032230
         H            1.386678090414    -1.052115732635     0.000000000000     1.007825032230
         C            3.534564379414    -0.471583502635     0.000000000000    12.000000000000
         C            2.069459422414    -0.188428164635     0.000000000000    12.000000000000
         O            1.604823974414     0.932473575365     0.000000000000    15.994914619570

  Charge       = 0
  Multiplicity = 1
  Basis Set: JUN-CC-PVTZ
    Blend: JUN-CC-PVTZ
  Basis Set: (JUN-CC-PVTZ AUX)
    Blend: JUN-CC-PVTZ-JKFIT

    Orbital Energies [Eh]
    ---------------------

    Doubly Occupied:

       1A    -20.558733     2A    -11.335679     3A    -11.242232
       4A     -1.391409     5A     -1.024867     6A     -0.804562
       7A     -0.676223     8A     -0.624669     9A     -0.605842
      10A     -0.563632    11A     -0.501970    12A     -0.428456

  @DF-RHF Final Energy:  -152.97605674109519

   => Energetics <=

    Nuclear Repulsion Energy =             69.8634775287957268
    One-Electron Energy =                -346.1625208463155445
    Two-Electron Energy =                 123.3229865764246256
    Total Energy =                       -152.9760567410951921

  Dipole Moment: [D]
     X:     1.6826      Y:    -2.8304      Z:     0.0000     Total:     3.2928

    SAPT Results
  --------------------------------------------------------------------------------------------------------
    Electrostatics                -24.31152370 [mEh]     -15.25571144 [kcal/mol]     -63.82989668 [kJ/mol]
      Elst10,r                    -24.31152370 [mEh]     -15.25571144 [kcal/mol]     -63.82989668 [kJ/mol]

    Exchange                       19.99406000 [mEh]      12.54646207 [kcal/mol]      52.49439731 [kJ/mol]
      Exch10                       19.99406000 [mEh]      12.54646207 [kcal/mol]      52.49439731 [kJ/mol]
      Exch10(S^2)                  19.84301190 [mEh]      12.45167795 [kcal/mol]      52.09782056 [kJ/mol]

    Induction                      -9.09676253 [mEh]      -5.70830467 [kcal/mol]     -23.88354673 [kJ/mol]
      Ind20,r                     -11.16558789 [mEh]      -7.00651218 [kcal/mol]     -29.31524697 [kJ/mol]
      Exch-Ind20,r                  5.66439379 [mEh]       3.55446077 [kcal/mol]      14.87186386 [kJ/mol]
      delta HF,r (2)               -3.59556843 [mEh]      -2.25625326 [kcal/mol]      -9.44016362 [kJ/mol]

    Dispersion                     -7.07621093 [mEh]      -4.44038940 [kcal/mol]     -18.57858924 [kJ/mol]
      Disp20                       -8.49527730 [mEh]      -5.33086699 [kcal/mol]     -22.30434748 [kJ/mol]
      Exch-Disp20                   1.41906637 [mEh]       0.89047759 [kcal/mol]       3.72575824 [kJ/mol]
      Disp20 (SS)                  -4.24763865 [mEh]      -2.66543349 [kcal/mol]     -11.15217374 [kJ/mol]
      Disp20 (OS)                  -4.24763865 [mEh]      -2.66543349 [kcal/mol]     -11.15217374 [kJ/mol]
      Exch-Disp20 (SS)              0.88741927 [mEh]       0.55686400 [kcal/mol]       2.32991899 [kJ/mol]
      Exch-Disp20 (OS)              0.53164709 [mEh]       0.33361359 [kcal/mol]       1.39583925 [kJ/mol]

  Total HF                        -13.41422623 [mEh]      -8.41755404 [kcal/mol]     -35.21904610 [kJ/mol]
  Total SAPT0                     -20.49043716 [mEh]     -12.85794344 [kcal/mol]     -53.79763535 [kJ/mol]

  Special recipe for scaled SAPT0 (see Manual):
    Electrostatics sSAPT0         -24.31152370 [mEh]     -15.25571144 [kcal/mol]     -63.82989668 [kJ/mol]
    Exchange sSAPT0                19.99406000 [mEh]      12.54646207 [kcal/mol]      52.49439731 [kJ/mol]
    Induction sSAPT0               -8.96642061 [mEh]      -5.62651388 [kcal/mol]     -23.54133407 [kJ/mol]
    Dispersion sSAPT0              -7.04355716 [mEh]      -4.41989885 [kcal/mol]     -18.49285677 [kJ/mol]
  Total sSAPT0                    -20.32744147 [mEh]     -12.75566210 [kcal/mol]     -53.36969022 [kJ/mol]
  --------------------------------------------------------------------------------------------------------

*** Psi4 exiting successfully. Buy a developer a beer!
