                               Psi4 1.3.2 release

  ==> Input File <==

--------------------------------------------------------------------------
# Any line starting with the # character is a comment line
#! Sample  computation

memory 22 gb

molecule Dimer {
0 1
  C   -1.676709350  -0.155545695   0.000000000
  O   -0.993533620  -1.155786393   0.000000000
  O   -1.173945330   1.080177302   0.000000000
  H   -0.185940107   1.035554940   0.000000000
  C   -3.180974158  -0.156065960   0.000000000
  H   -3.550265591  -1.175547772   0.000000000
  H   -3.549007807   0.375205388  -0.876744631
  H   -3.549007807   0.375205388   0.876744631

 --
0 1
  H    3.905917637  -1.085082156   0.874204506
  H    3.905917637  -1.085082156  -0.874204506
  H    4.240860680   0.438258791   0.000000000
  H    1.510485692  -1.059175962   0.000000000
  C    3.658371981  -0.478643732   0.000000000
  C    2.193267024  -0.195488394   0.000000000
  O    1.728631576   0.925413346   0.000000000

units angstrom

no_reorient
symmetry c1
}

set globals{
  basis jun-cc-pVTZ
  scf_type DF
  freeze_core True
}

energy('sapt0')

--------------------------------------------------------------------------

  //              Dimer HF             //
    Molecular point group: c1
  Charge       = 0
  Multiplicity = 1
  Basis Set: JUN-CC-PVTZ
    Blend: JUN-CC-PVTZ
  Basis Set: (JUN-CC-PVTZ AUX)
    Blend: JUN-CC-PVTZ-JKFIT
  @DF-RHF Final Energy:  -380.89319906884140
    Total Energy =                       -380.8931990688413975
  //            Monomer A HF           //
    Molecular point group: c1
  Multiplicity = 1
  Basis Set: JUN-CC-PVTZ
    Blend: JUN-CC-PVTZ
  Basis Set: (JUN-CC-PVTZ AUX)
    Blend: JUN-CC-PVTZ-JKFIT
  @DF-RHF Final Energy:  -227.90384395524399
    Total Energy =                       -227.9038439552439854
  //            Monomer B HF           //
    Molecular point group: c1

    Geometry (in Angstrom), charge = 0, multiplicity = 1:

       Center              X                  Y                   Z               Mass
    ------------   -----------------  -----------------  -----------------  -----------------
      Gh(C)          -1.750314825348    -0.151373496516     0.000000000000    12.000000000000
      Gh(O)          -1.067139095348    -1.151614194516     0.000000000000    15.994914619570
      Gh(O)          -1.247550805348     1.084349500484     0.000000000000    15.994914619570
      Gh(H)          -0.259545582348     1.039727138484     0.000000000000     1.007825032230
      Gh(C)          -3.254579633348    -0.151893761516     0.000000000000    12.000000000000
      Gh(H)          -3.623871066348    -1.171375573516     0.000000000000     1.007825032230
      Gh(H)          -3.622613282348     0.379377586484    -0.876744631000     1.007825032230
      Gh(H)          -3.622613282348     0.379377586484     0.876744631000     1.007825032230
         H            3.832312161652    -1.080909957516     0.874204506000     1.007825032230
         H            3.832312161652    -1.080909957516    -0.874204506000     1.007825032230
         H            4.167255204652     0.442430989484     0.000000000000     1.007825032230
         H            1.436880216652    -1.055003763516     0.000000000000     1.007825032230
         C            3.584766505652    -0.474471533516     0.000000000000    12.000000000000
         C            2.119661548652    -0.191316195516     0.000000000000    12.000000000000
         O            1.655026100652     0.929585544484     0.000000000000    15.994914619570

  Charge       = 0
  Multiplicity = 1
  Basis Set: JUN-CC-PVTZ
    Blend: JUN-CC-PVTZ
  Basis Set: (JUN-CC-PVTZ AUX)
    Blend: JUN-CC-PVTZ-JKFIT

    Orbital Energies [Eh]
    ---------------------

    Doubly Occupied:

       1A    -20.558735     2A    -11.335683     3A    -11.242234
       4A     -1.391413     5A     -1.024869     6A     -0.804564
       7A     -0.676226     8A     -0.624672     9A     -0.605844
      10A     -0.563634    11A     -0.501973    12A     -0.428457

  @DF-RHF Final Energy:  -152.97604676111143

   => Energetics <=

    Nuclear Repulsion Energy =             69.8634775287957268
    One-Electron Energy =                -346.1624428384245107
    Two-Electron Energy =                 123.3229185485173502
    Total Energy =                       -152.9760467611114336

  Dipole Moment: [D]
     X:     1.6827      Y:    -2.8305      Z:    -0.0000     Total:     3.2929

    SAPT Results
  --------------------------------------------------------------------------------------------------------
    Electrostatics                -20.88236604 [mEh]     -13.10388252 [kcal/mol]     -54.82664448 [kJ/mol]
      Elst10,r                    -20.88236604 [mEh]     -13.10388252 [kcal/mol]     -54.82664448 [kJ/mol]

    Exchange                       14.62244796 [mEh]       9.17572463 [kcal/mol]      38.39123184 [kJ/mol]
      Exch10                       14.62244796 [mEh]       9.17572463 [kcal/mol]      38.39123184 [kJ/mol]
      Exch10(S^2)                  14.53907491 [mEh]       9.12340724 [kcal/mol]      38.17233591 [kJ/mol]

    Induction                      -7.04843441 [mEh]      -4.42295937 [kcal/mol]     -18.50566200 [kJ/mol]
      Ind20,r                      -8.43558623 [mEh]      -5.29341028 [kcal/mol]     -22.14762861 [kJ/mol]
      Exch-Ind20,r                  4.03285702 [mEh]       2.53065598 [kcal/mol]      10.58826464 [kJ/mol]
      delta HF,r (2)               -2.64570520 [mEh]      -1.66020508 [kcal/mol]      -6.94629804 [kJ/mol]

    Dispersion                     -5.96886699 [mEh]      -3.74552058 [kcal/mol]     -15.67125812 [kJ/mol]
      Disp20                       -7.04699028 [mEh]      -4.42205316 [kcal/mol]     -18.50187043 [kJ/mol]
      Exch-Disp20                   1.07812329 [mEh]       0.67653258 [kcal/mol]       2.83061231 [kJ/mol]
      Disp20 (SS)                  -3.52349514 [mEh]      -2.21102658 [kcal/mol]      -9.25093522 [kJ/mol]
      Disp20 (OS)                  -3.52349514 [mEh]      -2.21102658 [kcal/mol]      -9.25093522 [kJ/mol]
      Exch-Disp20 (SS)              0.67560255 [mEh]       0.42394700 [kcal/mol]       1.77379425 [kJ/mol]
      Exch-Disp20 (OS)              0.40252074 [mEh]       0.25258558 [kcal/mol]       1.05681806 [kJ/mol]

  Total HF                        -13.30835249 [mEh]      -8.35111727 [kcal/mol]     -34.94107464 [kJ/mol]
  Total SAPT0                     -19.27721947 [mEh]     -12.09663785 [kcal/mol]     -50.61233276 [kJ/mol]

  Special recipe for scaled SAPT0 (see Manual):
    Electrostatics sSAPT0         -20.88236604 [mEh]     -13.10388252 [kcal/mol]     -54.82664448 [kJ/mol]
    Exchange sSAPT0                14.62244796 [mEh]       9.17572463 [kcal/mol]      38.39123184 [kJ/mol]
    Induction sSAPT0               -6.97865761 [mEh]      -4.37917376 [kcal/mol]     -18.32246302 [kJ/mol]
    Dispersion sSAPT0              -5.95021322 [mEh]      -3.73381516 [kcal/mol]     -15.62228265 [kJ/mol]
  Total sSAPT0                    -19.18878890 [mEh]     -12.04114682 [kcal/mol]     -50.38015831 [kJ/mol]
  --------------------------------------------------------------------------------------------------------

*** Psi4 exiting successfully. Buy a developer a beer!
