                               Psi4 1.3.2 release

  ==> Input File <==

--------------------------------------------------------------------------
# Any line starting with the # character is a comment line
#! Sample  computation

memory 22 gb

molecule Dimer {
0 1
 C  -4.628820   -0.893534    0.000112
 C  -3.856978    0.413700    0.000079
 C  -2.365240    0.209616   -0.000052
 O  -1.815559   -0.877619   -0.000123
 O  -1.704317    1.373703    0.000013
 H  -4.382574   -1.487528    0.877739
 H  -5.700506   -0.702034    0.000185
 H  -4.382688   -1.487501   -0.877566
 H  -4.099750    1.025495    0.870517
 H  -4.099883    1.025522   -0.870304
 H  -0.734666    1.177936   -0.000046

 --
0 1
 H 0.549342   -1.094747   -0.000077
 C 2.753741   -0.775808   -0.000032
 C 1.329930   -0.319992   -0.000167
 O 1.002144    0.859758   -0.000090
 H 2.876563   -1.433174   -0.868635
 C 3.780777    0.342367    0.000019
 H 3.617700    0.976837   -0.872006
 H 3.617561    0.976886    0.871984
 H 2.876443   -1.433135    0.868621
 C 5.203158   -0.202509    0.000148
 H 5.385023   -0.819205    0.881061
 H 5.385165   -0.819254   -0.880702
 H 5.934713    0.604134    0.000184

units angstrom

no_reorient
symmetry c1
}

set globals{
  basis jun-cc-pvtz
}

energy('sapt0')

--------------------------------------------------------------------------

  //              Dimer HF             //
    Molecular point group: c1
  Charge       = 0
  Multiplicity = 1
  Basis Set: JUN-CC-PVTZ
    Blend: JUN-CC-PVTZ
  Basis Set: (JUN-CC-PVTZ AUX)
    Blend: JUN-CC-PVTZ-JKFIT
  @DF-RHF Final Energy:  -498.03561175440149
    Total Energy =                       -498.0356117544015433
  //            Monomer A HF           //
    Molecular point group: c1
  Multiplicity = 1
  Basis Set: JUN-CC-PVTZ
    Blend: JUN-CC-PVTZ
  Basis Set: (JUN-CC-PVTZ AUX)
    Blend: JUN-CC-PVTZ-JKFIT
  @DF-RHF Final Energy:  -266.95139532576201
    Total Energy =                       -266.9513953257620074
  //            Monomer B HF           //
    Molecular point group: c1

    Geometry (in Angstrom), charge = 0, multiplicity = 1:

       Center              X                  Y                   Z               Mass
    ------------   -----------------  -----------------  -----------------  -----------------
      Gh(C)          -4.582438263670    -0.917187089923     0.000118519830    12.000000000000
      Gh(C)          -3.810596263670     0.390046910077     0.000085519830    12.000000000000
      Gh(C)          -2.318858263670     0.185962910077    -0.000045480170    12.000000000000
      Gh(O)          -1.769177263670    -0.901272089923    -0.000116480170    15.994914619570
      Gh(O)          -1.657935263670     1.350049910077     0.000019519830    15.994914619570
      Gh(H)          -4.336192263670    -1.511181089923     0.877745519830     1.007825032230
      Gh(H)          -5.654124263670    -0.725687089923     0.000191519830     1.007825032230
      Gh(H)          -4.336306263670    -1.511154089923    -0.877559480170     1.007825032230
      Gh(H)          -4.053368263670     1.001841910077     0.870523519830     1.007825032230
      Gh(H)          -4.053501263670     1.001868910077    -0.870297480170     1.007825032230
      Gh(H)          -0.688284263670     1.154282910077    -0.000039480170     1.007825032230
         H            0.595723736330    -1.118400089923    -0.000070480170     1.007825032230
         C            2.800122736330    -0.799461089923    -0.000025480170    12.000000000000
         C            1.376311736330    -0.343645089923    -0.000160480170    12.000000000000
         O            1.048525736330     0.836104910077    -0.000083480170    15.994914619570
         H            2.922944736330    -1.456827089923    -0.868628480170     1.007825032230
         C            3.827158736330     0.318713910077     0.000025519830    12.000000000000
         H            3.664081736330     0.953183910077    -0.871999480170     1.007825032230
         H            3.663942736330     0.953232910077     0.871990519830     1.007825032230
         H            2.922824736330    -1.456788089923     0.868627519830     1.007825032230
         C            5.249539736330    -0.226162089923     0.000154519830    12.000000000000
         H            5.431404736330    -0.842858089923     0.881067519830     1.007825032230
         H            5.431546736330    -0.842907089923    -0.880695480170     1.007825032230
         H            5.981094736330     0.580480910077     0.000190519830     1.007825032230

  Charge       = 0
  Multiplicity = 1
  Basis Set: JUN-CC-PVTZ
    Blend: JUN-CC-PVTZ
  Basis Set: (JUN-CC-PVTZ AUX)
    Blend: JUN-CC-PVTZ-JKFIT

    Orbital Energies [Eh]
    ---------------------

    Doubly Occupied:

       1A    -20.555720     2A    -11.332290     3A    -11.242322
       4A    -11.225912     5A    -11.218425     6A     -1.382090
       7A     -1.083959     8A     -0.978871     9A     -0.849907
      10A     -0.771990    11A     -0.674191    12A     -0.651010
      13A     -0.630854    14A     -0.569353    15A     -0.568348
      16A     -0.512326    17A     -0.499011    18A     -0.492135
      19A     -0.479859    20A     -0.422655

  @DF-RHF Final Energy:  -231.07099704964841

   => Energetics <=

    Nuclear Repulsion Energy =            172.5044390131830028
    One-Electron Energy =                -654.8684027967965449
    Two-Electron Energy =                 251.2929667339651303
    Total Energy =                       -231.0709970496484118

  Dipole Moment: [D]
     X:     1.4578      Y:    -2.7700      Z:    -0.0000     Total:     3.1302

    SAPT Results
  --------------------------------------------------------------------------------------------------------
    Electrostatics                -27.27462844 [mEh]     -17.11508774 [kcal/mol]     -71.60952712 [kJ/mol]
      Elst10,r                    -27.27462844 [mEh]     -17.11508774 [kcal/mol]     -71.60952712 [kJ/mol]

    Exchange                       25.05379519 [mEh]      15.72149383 [kcal/mol]      65.77873020 [kJ/mol]
      Exch10                       25.05379519 [mEh]      15.72149383 [kcal/mol]      65.77873020 [kJ/mol]
      Exch10(S^2)                  24.81609829 [mEh]      15.57233678 [kcal/mol]      65.15465708 [kJ/mol]

    Induction                     -10.99854573 [mEh]      -6.90169165 [kcal/mol]     -28.87667784 [kJ/mol]
      Ind20,r                     -13.76933014 [mEh]      -8.64038511 [kcal/mol]     -36.15137130 [kJ/mol]
      Exch-Ind20,r                  7.27634116 [mEh]       4.56597301 [kcal/mol]      19.10403108 [kJ/mol]
      delta HF,r (2)               -4.50555675 [mEh]      -2.82727955 [kcal/mol]     -11.82933763 [kJ/mol]

    Dispersion                     -8.21656633 [mEh]      -5.15597321 [kcal/mol]     -21.57259193 [kJ/mol]
      Disp20                       -9.97326564 [mEh]      -6.25831868 [kcal/mol]     -26.18480534 [kJ/mol]
      Exch-Disp20                   1.75669931 [mEh]       1.10234546 [kcal/mol]       4.61221341 [kJ/mol]
      Disp20 (SS)                  -4.98663282 [mEh]      -3.12915934 [kcal/mol]     -13.09240267 [kJ/mol]
      Disp20 (OS)                  -4.98663282 [mEh]      -3.12915934 [kcal/mol]     -13.09240267 [kJ/mol]
      Exch-Disp20 (SS)              1.09687093 [mEh]       0.68829690 [kcal/mol]       2.87983422 [kJ/mol]
      Exch-Disp20 (OS)              0.65982839 [mEh]       0.41404856 [kcal/mol]       1.73237919 [kJ/mol]

  Total HF                        -13.21937899 [mEh]      -8.29528555 [kcal/mol]     -34.70747476 [kJ/mol]
  Total SAPT0                     -21.43594532 [mEh]     -13.45125877 [kcal/mol]     -56.28006669 [kJ/mol]

  Special recipe for scaled SAPT0 (see Manual):
    Electrostatics sSAPT0         -27.27462844 [mEh]     -17.11508774 [kcal/mol]     -71.60952712 [kJ/mol]
    Exchange sSAPT0                25.05379519 [mEh]      15.72149383 [kcal/mol]      65.77873020 [kJ/mol]
    Induction sSAPT0              -10.78745095 [mEh]      -6.76922767 [kcal/mol]     -28.32244857 [kJ/mol]
    Dispersion sSAPT0              -8.16560252 [mEh]      -5.12399294 [kcal/mol]     -21.43878647 [kJ/mol]
  Total sSAPT0                    -21.17388673 [mEh]     -13.28681452 [kcal/mol]     -55.59203195 [kJ/mol]
  --------------------------------------------------------------------------------------------------------

*** Psi4 exiting successfully. Buy a developer a beer!
