                               Psi4 1.3.2 release

  ==> Input File <==

--------------------------------------------------------------------------
# Any line starting with the # character is a comment line
#! Sample  computation

memory 22 gb

molecule Dimer {
0 1
 C  3.439209    0.101712   -0.000131
 O  2.867856   -1.097744    0.000011
 O  2.859074    1.167713   -0.000181
 H  4.528698    0.006128   -0.000206
 H  1.882821   -0.977133    0.000070

 --
0 1
 H  0.464104    1.208550   -0.000160
 C -1.710604    0.732632   -0.000029
 C -0.258780    0.379613   -0.000020
 O  0.152483   -0.774105    0.000123
 H -1.879182    1.379826   -0.868621
 C -2.655833   -0.455529    0.000114
 H -2.448416   -1.076890   -0.871934
 H -2.448376   -1.076714    0.872276
 H -1.879143    1.380001    0.868440
 C -4.113018   -0.012157    0.000102
 H -4.337980    0.590182    0.880967
 H -4.338017    0.590014   -0.880869
 H -4.785652   -0.868492    0.000198

units angstrom

no_reorient
symmetry c1
}

set globals{
  basis jun-cc-pvtz
}

energy('sapt0')

--------------------------------------------------------------------------

  //              Dimer HF             //
    Molecular point group: c1
  Charge       = 0
  Multiplicity = 1
  Basis Set: JUN-CC-PVTZ
    Blend: JUN-CC-PVTZ
  Basis Set: (JUN-CC-PVTZ AUX)
    Blend: JUN-CC-PVTZ-JKFIT
  @DF-RHF Final Energy:  -419.92689609715370
    Total Energy =                       -419.9268960971537012
  //            Monomer A HF           //
    Molecular point group: c1
  Multiplicity = 1
  Basis Set: JUN-CC-PVTZ
    Blend: JUN-CC-PVTZ
  Basis Set: (JUN-CC-PVTZ AUX)
    Blend: JUN-CC-PVTZ-JKFIT
  @DF-RHF Final Energy:  -188.84143264022853
    Total Energy =                       -188.8414326402285326
  //            Monomer B HF           //
    Molecular point group: c1

    Geometry (in Angstrom), charge = 0, multiplicity = 1:

       Center              X                  Y                   Z               Mass
    ------------   -----------------  -----------------  -----------------  -----------------
      Gh(C)           3.311379008751     0.111391829000    -0.000129665957    12.000000000000
      Gh(O)           2.740026008751    -1.088064171000     0.000012334043    15.994914619570
      Gh(O)           2.731244008751     1.177392829000    -0.000179665957    15.994914619570
      Gh(H)           4.400868008751     0.015807829000    -0.000204665957     1.007825032230
      Gh(H)           1.754991008751    -0.967453171000     0.000071334043     1.007825032230
         H            0.336274008751     1.218229829000    -0.000158665957     1.007825032230
         C           -1.838433991249     0.742311829000    -0.000027665957    12.000000000000
         C           -0.386609991249     0.389292829000    -0.000018665957    12.000000000000
         O            0.024653008751    -0.764425171000     0.000124334043    15.994914619570
         H           -2.007011991249     1.389505829000    -0.868619665957     1.007825032230
         C           -2.783662991249    -0.445849171000     0.000115334043    12.000000000000
         H           -2.576245991249    -1.067210171000    -0.871932665957     1.007825032230
         H           -2.576205991249    -1.067034171000     0.872277334043     1.007825032230
         H           -2.006972991249     1.389680829000     0.868441334043     1.007825032230
         C           -4.240847991249    -0.002477171000     0.000103334043    12.000000000000
         H           -4.465809991249     0.599861829000     0.880968334043     1.007825032230
         H           -4.465846991249     0.599693829000    -0.880867665957     1.007825032230
         H           -4.913481991249    -0.858812171000     0.000199334043     1.007825032230

  Charge       = 0
  Multiplicity = 1
  Basis Set: JUN-CC-PVTZ
    Blend: JUN-CC-PVTZ
  Basis Set: (JUN-CC-PVTZ AUX)
    Blend: JUN-CC-PVTZ-JKFIT

    Orbital Energies [Eh]
    ---------------------

    Doubly Occupied:

       1A    -20.555690     2A    -11.332296     3A    -11.242295
       4A    -11.225946     5A    -11.218419     6A     -1.381818
       7A     -1.084076     8A     -0.979069     9A     -0.849970
      10A     -0.771935    11A     -0.674171    12A     -0.651066
      13A     -0.630819    14A     -0.569347    15A     -0.568399
      16A     -0.512280    17A     -0.498875    18A     -0.492195
      19A     -0.479875    20A     -0.422718

  @DF-RHF Final Energy:  -231.07093437607693

   => Energetics <=

    Nuclear Repulsion Energy =            172.5143757677777501
    One-Electron Energy =                -654.8881035885772235
    Two-Electron Energy =                 251.3027934447225107
    Total Energy =                       -231.0709343760769343

  Dipole Moment: [D]
     X:    -1.6540      Y:     2.6623      Z:    -0.0003     Total:     3.1342

    SAPT Results
  --------------------------------------------------------------------------------------------------------
    Electrostatics                -28.77463681 [mEh]     -18.05635720 [kcal/mol]     -75.54779853 [kJ/mol]
      Elst10,r                    -28.77463681 [mEh]     -18.05635720 [kcal/mol]     -75.54779853 [kJ/mol]

    Exchange                       26.26832121 [mEh]      16.48362042 [kcal/mol]      68.96746782 [kJ/mol]
      Exch10                       26.26832121 [mEh]      16.48362042 [kcal/mol]      68.96746782 [kJ/mol]
      Exch10(S^2)                  25.99549083 [mEh]      16.31241677 [kcal/mol]      68.25115178 [kJ/mol]

    Induction                     -12.02276525 [mEh]      -7.54439909 [kcal/mol]     -31.56576580 [kJ/mol]
      Ind20,r                     -14.83417210 [mEh]      -9.30858353 [kcal/mol]     -38.94711349 [kJ/mol]
      Exch-Ind20,r                  7.72783626 [mEh]       4.84929046 [kcal/mol]      20.28943130 [kJ/mol]
      delta HF,r (2)               -4.91642940 [mEh]      -3.08510603 [kcal/mol]     -12.90808361 [kJ/mol]

    Dispersion                     -8.17548851 [mEh]      -5.13019649 [kcal/mol]     -21.46474211 [kJ/mol]
      Disp20                       -9.95228428 [mEh]      -6.24515267 [kcal/mol]     -26.12971878 [kJ/mol]
      Exch-Disp20                   1.77679577 [mEh]       1.11495618 [kcal/mol]       4.66497666 [kJ/mol]
      Disp20 (SS)                  -4.97614214 [mEh]      -3.12257634 [kcal/mol]     -13.06485939 [kJ/mol]
      Disp20 (OS)                  -4.97614214 [mEh]      -3.12257634 [kcal/mol]     -13.06485939 [kJ/mol]
      Exch-Disp20 (SS)              1.10975645 [mEh]       0.69638269 [kcal/mol]       2.91366516 [kJ/mol]
      Exch-Disp20 (OS)              0.66703933 [mEh]       0.41857350 [kcal/mol]       1.75131151 [kJ/mol]

  Total HF                        -14.52908085 [mEh]      -9.11713588 [kcal/mol]     -38.14609651 [kJ/mol]
  Total SAPT0                     -22.70456935 [mEh]     -14.24733237 [kcal/mol]     -59.61083862 [kJ/mol]

  Special recipe for scaled SAPT0 (see Manual):
    Electrostatics sSAPT0         -28.77463681 [mEh]     -18.05635720 [kcal/mol]     -75.54779853 [kJ/mol]
    Exchange sSAPT0                26.26832121 [mEh]      16.48362042 [kcal/mol]      68.96746782 [kJ/mol]
    Induction sSAPT0              -11.77688483 [mEh]      -7.39010680 [kcal/mol]     -30.92020686 [kJ/mol]
    Dispersion sSAPT0              -8.11895531 [mEh]      -5.09472137 [kcal/mol]     -21.31631423 [kJ/mol]
  Total sSAPT0                    -22.40215574 [mEh]     -14.05756496 [kcal/mol]     -58.81685180 [kJ/mol]
  --------------------------------------------------------------------------------------------------------

*** Psi4 exiting successfully. Buy a developer a beer!
