                               Psi4 1.3.2 release

  ==> Input File <==

--------------------------------------------------------------------------
# Any line starting with the # character is a comment line
#! Sample  computation

memory 22 gb

molecule Dimer {
0 1
 C  -2.889737    0.112893   -0.000089
 O  -2.264568    1.158255   -0.000291
 O  -2.312261   -1.094757    0.000108
 H  -1.331169   -0.966834    0.000115
 C  -4.386921    0.013869   -0.000037
 H  -4.820172    1.007501   -0.000780
 H  -4.713678   -0.541146   -0.877301
 H  -4.713631   -0.539739    0.878141

 --
0 1
 H 0.110619    1.209243   -0.000079
 C 2.286278    0.732410   -0.000027
 C 0.833385    0.380343   -0.000011
 O 0.421498   -0.772799    0.000124
 H 2.455903    1.379316    0.868553
 C 3.230194   -0.456764    0.000099
 H 3.021818   -1.077787    0.872171
 H 3.021837   -1.077956   -0.871858
 H 2.455916    1.379142   -0.868734
 C 4.688078   -0.015633    0.000072
 H 4.913928    0.586317   -0.880867
 H 4.913909    0.586486    0.880901
 H 5.359701   -0.872830    0.000161

units angstrom

no_reorient
symmetry c1
}

set globals{
  basis jun-cc-pvtz
}

energy('sapt0')

--------------------------------------------------------------------------

  //              Dimer HF             //
    Molecular point group: c1
  Charge       = 0
  Multiplicity = 1
  Basis Set: JUN-CC-PVTZ
    Blend: JUN-CC-PVTZ
  Basis Set: (JUN-CC-PVTZ AUX)
    Blend: JUN-CC-PVTZ-JKFIT
  @DF-RHF Final Energy:  -458.98754230695079
    Total Energy =                       -458.9875423069507860
  //            Monomer A HF           //
    Molecular point group: c1
  Multiplicity = 1
  Basis Set: JUN-CC-PVTZ
    Blend: JUN-CC-PVTZ
  Basis Set: (JUN-CC-PVTZ AUX)
    Blend: JUN-CC-PVTZ-JKFIT
  @DF-RHF Final Energy:  -227.90310542144400
    Total Energy =                       -227.9031054214439962
  //            Monomer B HF           //
    Molecular point group: c1

    Geometry (in Angstrom), charge = 0, multiplicity = 1:

       Center              X                  Y                   Z               Mass
    ------------   -----------------  -----------------  -----------------  -----------------
      Gh(C)          -2.809706442819     0.120916202781    -0.000085718698    12.000000000000
      Gh(O)          -2.184537442819     1.166278202781    -0.000287718698    15.994914619570
      Gh(O)          -2.232230442819    -1.086733797219     0.000111281302    15.994914619570
      Gh(H)          -1.251138442819    -0.958810797219     0.000118281302     1.007825032230
      Gh(C)          -4.306890442819     0.021892202781    -0.000033718698    12.000000000000
      Gh(H)          -4.740141442819     1.015524202781    -0.000776718698     1.007825032230
      Gh(H)          -4.633647442819    -0.533122797219    -0.877297718698     1.007825032230
      Gh(H)          -4.633600442819    -0.531715797219     0.878144281302     1.007825032230
         H            0.190649557181     1.217266202781    -0.000075718698     1.007825032230
         C            2.366308557181     0.740433202781    -0.000023718698    12.000000000000
         C            0.913415557181     0.388366202781    -0.000007718698    12.000000000000
         O            0.501528557181    -0.764775797219     0.000127281302    15.994914619570
         H            2.535933557181     1.387339202781     0.868556281302     1.007825032230
         C            3.310224557181    -0.448740797219     0.000102281302    12.000000000000
         H            3.101848557181    -1.069763797219     0.872174281302     1.007825032230
         H            3.101867557181    -1.069932797219    -0.871854718698     1.007825032230
         H            2.535946557181     1.387165202781    -0.868730718698     1.007825032230
         C            4.768108557181    -0.007609797219     0.000075281302    12.000000000000
         H            4.993958557181     0.594340202781    -0.880863718698     1.007825032230
         H            4.993939557181     0.594509202781     0.880904281302     1.007825032230
         H            5.439731557181    -0.864806797219     0.000164281302     1.007825032230

  Charge       = 0
  Multiplicity = 1
  Basis Set: JUN-CC-PVTZ
    Blend: JUN-CC-PVTZ
  Basis Set: (JUN-CC-PVTZ AUX)
    Blend: JUN-CC-PVTZ-JKFIT

    Orbital Energies [Eh]
    ---------------------

    Doubly Occupied:

       1A    -20.555715     2A    -11.332289     3A    -11.242324
       4A    -11.225920     5A    -11.218428     6A     -1.382051
       7A     -1.083967     8A     -0.978888     9A     -0.849915
      10A     -0.771989    11A     -0.674186    12A     -0.651016
      13A     -0.630841    14A     -0.569349    15A     -0.568353
      16A     -0.512328    17A     -0.498992    18A     -0.492136
      19A     -0.479858    20A     -0.422663

  @DF-RHF Final Energy:  -231.07098645388456

   => Energetics <=

    Nuclear Repulsion Energy =            172.5042638726604309
    One-Electron Energy =                -654.8680757664114935
    Two-Electron Energy =                 251.2928254398665047
    Total Energy =                       -231.0709864538845579

  Dipole Moment: [D]
     X:     1.6536      Y:     2.6583      Z:    -0.0003     Total:     3.1307

    SAPT Results
  --------------------------------------------------------------------------------------------------------
    Electrostatics                -27.49387265 [mEh]     -17.25266556 [kcal/mol]     -72.18515269 [kJ/mol]
      Elst10,r                    -27.49387265 [mEh]     -17.25266556 [kcal/mol]     -72.18515269 [kJ/mol]

    Exchange                       25.14368128 [mEh]      15.77789821 [kcal/mol]      66.01472611 [kJ/mol]
      Exch10                       25.14368128 [mEh]      15.77789821 [kcal/mol]      66.01472611 [kJ/mol]
      Exch10(S^2)                  24.90363971 [mEh]      15.62726985 [kcal/mol]      65.38449704 [kJ/mol]

    Induction                     -11.10024025 [mEh]      -6.96550592 [kcal/mol]     -29.14367677 [kJ/mol]
      Ind20,r                     -13.86229701 [mEh]      -8.69872270 [kcal/mol]     -36.39545578 [kJ/mol]
      Exch-Ind20,r                  7.29318154 [mEh]       4.57654051 [kcal/mol]      19.14824550 [kJ/mol]
      delta HF,r (2)               -4.53112479 [mEh]      -2.84332373 [kcal/mol]     -11.89646649 [kJ/mol]

    Dispersion                     -8.16209621 [mEh]      -5.12179270 [kcal/mol]     -21.42958065 [kJ/mol]
      Disp20                       -9.91301696 [mEh]      -6.22051206 [kcal/mol]     -26.02662245 [kJ/mol]
      Exch-Disp20                   1.75092075 [mEh]       1.09871936 [kcal/mol]       4.59704179 [kJ/mol]
      Disp20 (SS)                  -4.95650848 [mEh]      -3.11025603 [kcal/mol]     -13.01331122 [kJ/mol]
      Disp20 (OS)                  -4.95650848 [mEh]      -3.11025603 [kcal/mol]     -13.01331122 [kJ/mol]
      Exch-Disp20 (SS)              1.09334396 [mEh]       0.68608369 [kcal/mol]       2.87057416 [kJ/mol]
      Exch-Disp20 (OS)              0.65757679 [mEh]       0.41263567 [kcal/mol]       1.72646763 [kJ/mol]

  Total HF                        -13.45043162 [mEh]      -8.44027327 [kcal/mol]     -35.31410336 [kJ/mol]
  Total SAPT0                     -21.61252783 [mEh]     -13.56206597 [kcal/mol]     -56.74368401 [kJ/mol]

  Special recipe for scaled SAPT0 (see Manual):
    Electrostatics sSAPT0         -27.49387265 [mEh]     -17.25266556 [kcal/mol]     -72.18515269 [kJ/mol]
    Exchange sSAPT0                25.14368128 [mEh]      15.77789821 [kcal/mol]      66.01472611 [kJ/mol]
    Induction sSAPT0              -10.88730808 [mEh]      -6.83188897 [kcal/mol]     -28.58462343 [kJ/mol]
    Dispersion sSAPT0              -8.11097622 [mEh]      -5.08971442 [kcal/mol]     -21.29536514 [kJ/mol]
  Total sSAPT0                    -21.34847567 [mEh]     -13.39637074 [kcal/mol]     -56.05041516 [kJ/mol]
  --------------------------------------------------------------------------------------------------------

*** Psi4 exiting successfully. Buy a developer a beer!
