                               Psi4 1.3.2 release

  ==> Input File <==

--------------------------------------------------------------------------
# Any line starting with the # character is a comment line
#! Sample  computation

memory 22 gb

molecule Dimer {
0 1
 C  -2.279049    0.109247    0.000056
 O  -1.657874    1.156989    0.000192
 O  -1.696790   -1.096154   -0.000065
 H  -0.716384   -0.964306   -0.000003
 C  -3.775793    0.004386    0.000062
 H  -4.212920    0.996315   -0.000374
 H  -4.100380   -0.551633   -0.877372
 H  -4.100356   -0.550782    0.878050

 --
0 1
 H 0.716133    1.219410   -0.000369
 C 2.894088    0.752849   -0.000158
 C 1.442478    0.393955   -0.000238
 O 1.037019   -0.761243   -0.000008
 H 3.056004    1.400025    0.867846
 C 3.827998   -0.443569    0.000120
 H 3.659135   -1.064196    0.877807
 H 3.659287   -1.064483   -0.877393
 H 4.866174   -0.118033    0.000157
 H 3.056147    1.399732   -0.868352

units angstrom

no_reorient
symmetry c1
}

set globals{
  basis jun-cc-pvtz
}

energy('sapt0')

--------------------------------------------------------------------------

  //              Dimer HF             //
    Molecular point group: c1
  Charge       = 0
  Multiplicity = 1
  Basis Set: JUN-CC-PVTZ
    Blend: JUN-CC-PVTZ
  Basis Set: (JUN-CC-PVTZ AUX)
    Blend: JUN-CC-PVTZ-JKFIT
  @DF-RHF Final Energy:  -419.93992100175603
    Total Energy =                       -419.9399210017560335
  //            Monomer A HF           //
    Molecular point group: c1
  Multiplicity = 1
  Basis Set: JUN-CC-PVTZ
    Blend: JUN-CC-PVTZ
  Basis Set: (JUN-CC-PVTZ AUX)
    Blend: JUN-CC-PVTZ-JKFIT
  @DF-RHF Final Energy:  -227.90311459470578
    Total Energy =                       -227.9031145947057837
  //            Monomer B HF           //
    Molecular point group: c1

    Geometry (in Angstrom), charge = 0, multiplicity = 1:

       Center              X                  Y                   Z               Mass
    ------------   -----------------  -----------------  -----------------  -----------------
      Gh(C)          -2.229710962105     0.115116812193     0.000055962974    12.000000000000
      Gh(O)          -1.608535962105     1.162858812193     0.000191962974    15.994914619570
      Gh(O)          -1.647451962105    -1.090284187807    -0.000065037026    15.994914619570
      Gh(H)          -0.667045962105    -0.958436187807    -0.000003037026     1.007825032230
      Gh(C)          -3.726454962105     0.010255812193     0.000061962974    12.000000000000
      Gh(H)          -4.163581962105     1.002184812193    -0.000374037026     1.007825032230
      Gh(H)          -4.051041962105    -0.545763187807    -0.877372037026     1.007825032230
      Gh(H)          -4.051017962105    -0.544912187807     0.878049962974     1.007825032230
         H            0.765471037895     1.225279812193    -0.000369037026     1.007825032230
         C            2.943426037895     0.758718812193    -0.000158037026    12.000000000000
         C            1.491816037895     0.399824812193    -0.000238037026    12.000000000000
         O            1.086357037895    -0.755373187807    -0.000008037026    15.994914619570
         H            3.105342037895     1.405894812193     0.867845962974     1.007825032230
         C            3.877336037895    -0.437699187807     0.000119962974    12.000000000000
         H            3.708473037895    -1.058326187807     0.877806962974     1.007825032230
         H            3.708625037895    -1.058613187807    -0.877393037026     1.007825032230
         H            4.915512037895    -0.112163187807     0.000156962974     1.007825032230
         H            3.105485037895     1.405601812193    -0.868352037026     1.007825032230

  Charge       = 0
  Multiplicity = 1
  Basis Set: JUN-CC-PVTZ
    Blend: JUN-CC-PVTZ
  Basis Set: (JUN-CC-PVTZ AUX)
    Blend: JUN-CC-PVTZ-JKFIT

    Orbital Energies [Eh]
    ---------------------

    Doubly Occupied:

       1A    -20.556517     2A    -11.332763     3A    -11.245459
       4A    -11.221203     5A     -1.382931     6A     -1.064790
       7A     -0.914145     8A     -0.775950     9A     -0.681635
      10A     -0.635897    11A     -0.624552    12A     -0.541856
      13A     -0.525842    14A     -0.520852    15A     -0.488557
      16A     -0.424975

  @DF-RHF Final Energy:  -192.02339399486050

   => Energetics <=

    Nuclear Repulsion Energy =            118.7397659341545193
    One-Electron Energy =                -495.6504756842812753
    Two-Electron Energy =                 184.8873157552662860
    Total Energy =                       -192.0233939948604984

  Dipole Moment: [D]
     X:     1.5964      Y:     2.7748      Z:    -0.0004     Total:     3.2013

    SAPT Results
  --------------------------------------------------------------------------------------------------------
    Electrostatics                -27.40756731 [mEh]     -17.19850814 [kcal/mol]     -71.95855807 [kJ/mol]
      Elst10,r                    -27.40756731 [mEh]     -17.19850814 [kcal/mol]     -71.95855807 [kJ/mol]

    Exchange                       25.02523279 [mEh]      15.70357066 [kcal/mol]      65.70373963 [kJ/mol]
      Exch10                       25.02523279 [mEh]      15.70357066 [kcal/mol]      65.70373963 [kJ/mol]
      Exch10(S^2)                  24.78790040 [mEh]      15.55464234 [kcal/mol]      65.08062354 [kJ/mol]

    Induction                     -11.03007766 [mEh]      -6.92147823 [kcal/mol]     -28.95946492 [kJ/mol]
      Ind20,r                     -13.78195797 [mEh]      -8.64830920 [kcal/mol]     -36.18452568 [kJ/mol]
      Exch-Ind20,r                  7.25152319 [mEh]       4.55039950 [kcal/mol]      19.03887151 [kJ/mol]
      delta HF,r (2)               -4.49964288 [mEh]      -2.82356854 [kcal/mol]     -11.81381075 [kJ/mol]

    Dispersion                     -8.11914825 [mEh]      -5.09484245 [kcal/mol]     -21.31682079 [kJ/mol]
      Disp20                       -9.86021711 [mEh]      -6.18737965 [kcal/mol]     -25.88799646 [kJ/mol]
      Exch-Disp20                   1.74106886 [mEh]       1.09253720 [kcal/mol]       4.57117566 [kJ/mol]
      Disp20 (SS)                  -4.93010855 [mEh]      -3.09368982 [kcal/mol]     -12.94399823 [kJ/mol]
      Disp20 (OS)                  -4.93010855 [mEh]      -3.09368982 [kcal/mol]     -12.94399823 [kJ/mol]
      Exch-Disp20 (SS)              1.08699055 [mEh]       0.68209687 [kcal/mol]       2.85389329 [kJ/mol]
      Exch-Disp20 (OS)              0.65407831 [mEh]       0.41044034 [kcal/mol]       1.71728237 [kJ/mol]

  Total HF                        -13.41241219 [mEh]      -8.41641572 [kcal/mol]     -35.21428335 [kJ/mol]
  Total SAPT0                     -21.53156044 [mEh]     -13.51125816 [kcal/mol]     -56.53110414 [kJ/mol]

  Special recipe for scaled SAPT0 (see Manual):
    Electrostatics sSAPT0         -27.40756731 [mEh]     -17.19850814 [kcal/mol]     -71.95855807 [kJ/mol]
    Exchange sSAPT0                25.02523279 [mEh]      15.70357066 [kcal/mol]      65.70373963 [kJ/mol]
    Induction sSAPT0              -10.81978734 [mEh]      -6.78951906 [kcal/mol]     -28.40734775 [kJ/mol]
    Dispersion sSAPT0              -8.06865818 [mEh]      -5.06315945 [kcal/mol]     -21.18425912 [kJ/mol]
  Total sSAPT0                    -21.27078004 [mEh]     -13.34761599 [kcal/mol]     -55.84642531 [kJ/mol]
  --------------------------------------------------------------------------------------------------------

*** Psi4 exiting successfully. Buy a developer a beer!
