                               Psi4 1.3.2 release

  ==> Input File <==

--------------------------------------------------------------------------
# Any line starting with the # character is a comment line
#! Sample  computation

memory 22 gb

molecule Dimer {
0 1
 C  2.823883    0.091105    0.000048
 O  2.244632   -1.104526   -0.000200
 O  2.250810    1.160932    0.000324
 H  3.912691   -0.011642   -0.000021
 H  1.260573   -0.977499   -0.000176

 --
0 1
 H -0.144804    1.218704   -0.000716
 C -2.322538    0.756710   -0.000248
 C -0.872625    0.394434   -0.000236
 O -0.469759   -0.762023    0.000058
 H -2.482307    1.404807    0.867493
 C -3.259751   -0.437084    0.000291
 H -4.296766   -0.108110    0.000267
 H -3.093179   -1.058562   -0.877201
 H -3.093010   -1.057900    0.878219
 H -2.482479    1.404154   -0.868447

units angstrom

no_reorient
symmetry c1
}

set globals{
  basis jun-cc-pvtz
}

energy('sapt0')

--------------------------------------------------------------------------

  //              Dimer HF             //
    Molecular point group: c1
  Charge       = 0
  Multiplicity = 1
  Basis Set: JUN-CC-PVTZ
    Blend: JUN-CC-PVTZ
  Basis Set: (JUN-CC-PVTZ AUX)
    Blend: JUN-CC-PVTZ-JKFIT
  @DF-RHF Final Energy:  -380.87926559589727
    Total Energy =                       -380.8792655958972659
  //            Monomer A HF           //
    Molecular point group: c1
  Multiplicity = 1
  Basis Set: JUN-CC-PVTZ
    Blend: JUN-CC-PVTZ
  Basis Set: (JUN-CC-PVTZ AUX)
    Blend: JUN-CC-PVTZ-JKFIT
  @DF-RHF Final Energy:  -188.84144067006054
    Total Energy =                       -188.8414406700605355
  //            Monomer B HF           //
    Molecular point group: c1

    Geometry (in Angstrom), charge = 0, multiplicity = 1:

       Center              X                  Y                   Z               Mass
    ------------   -----------------  -----------------  -----------------  -----------------
      Gh(C)           2.724723605318     0.098832083044     0.000042382170    12.000000000000
      Gh(O)           2.145472605318    -1.096798916956    -0.000205617830    15.994914619570
      Gh(O)           2.151650605318     1.168659083044     0.000318382170    15.994914619570
      Gh(H)           3.813531605318    -0.003914916956    -0.000026617830     1.007825032230
      Gh(H)           1.161413605318    -0.969771916956    -0.000181617830     1.007825032230
         H           -0.243963394682     1.226431083044    -0.000721617830     1.007825032230
         C           -2.421697394682     0.764437083044    -0.000253617830    12.000000000000
         C           -0.971784394682     0.402161083044    -0.000241617830    12.000000000000
         O           -0.568918394682    -0.754295916956     0.000052382170    15.994914619570
         H           -2.581466394682     1.412534083044     0.867487382170     1.007825032230
         C           -3.358910394682    -0.429356916956     0.000285382170    12.000000000000
         H           -4.395925394682    -0.100382916956     0.000261382170     1.007825032230
         H           -3.192338394682    -1.050834916956    -0.877206617830     1.007825032230
         H           -3.192169394682    -1.050172916956     0.878213382170     1.007825032230
         H           -2.581638394682     1.411881083044    -0.868452617830     1.007825032230

  Charge       = 0
  Multiplicity = 1
  Basis Set: JUN-CC-PVTZ
    Blend: JUN-CC-PVTZ
  Basis Set: (JUN-CC-PVTZ AUX)
    Blend: JUN-CC-PVTZ-JKFIT

    Orbital Energies [Eh]
    ---------------------

    Doubly Occupied:

       1A    -20.556493     2A    -11.332770     3A    -11.245430
       4A    -11.221217     5A     -1.382700     6A     -1.064962
       7A     -0.914340     8A     -0.775876     9A     -0.681648
      10A     -0.635951    11A     -0.624505    12A     -0.541819
      13A     -0.525860    14A     -0.520911    15A     -0.488448
      16A     -0.425038

  @DF-RHF Final Energy:  -192.02334301015748

   => Energetics <=

    Nuclear Repulsion Energy =            118.7471148919503605
    One-Electron Energy =                -495.6649788264176664
    Two-Electron Energy =                 184.8945209243098020
    Total Energy =                       -192.0233430101574754

  Dipole Moment: [D]
     X:    -1.5920      Y:     2.7816      Z:    -0.0007     Total:     3.2049

    SAPT Results
  --------------------------------------------------------------------------------------------------------
    Electrostatics                -28.66554500 [mEh]     -17.98790106 [kcal/mol]     -75.26137804 [kJ/mol]
      Elst10,r                    -28.66554500 [mEh]     -17.98790106 [kcal/mol]     -75.26137804 [kJ/mol]

    Exchange                       26.12829306 [mEh]      16.39575143 [kcal/mol]      68.59982399 [kJ/mol]
      Exch10                       26.12829306 [mEh]      16.39575143 [kcal/mol]      68.59982399 [kJ/mol]
      Exch10(S^2)                  25.85826608 [mEh]      16.22630694 [kcal/mol]      67.89086825 [kJ/mol]

    Induction                     -11.94466374 [mEh]      -7.49538966 [kcal/mol]     -31.36071033 [kJ/mol]
      Ind20,r                     -14.74351506 [mEh]      -9.25169538 [kcal/mol]     -38.70909346 [kJ/mol]
      Exch-Ind20,r                  7.68010718 [mEh]       4.81934002 [kcal/mol]      20.16411863 [kJ/mol]
      delta HF,r (2)               -4.88125586 [mEh]      -3.06303430 [kcal/mol]     -12.81573550 [kJ/mol]

    Dispersion                     -8.12749673 [mEh]      -5.10008120 [kcal/mol]     -21.33873972 [kJ/mol]
      Disp20                       -9.89265754 [mEh]      -6.20773632 [kcal/mol]     -25.97316878 [kJ/mol]
      Exch-Disp20                   1.76516081 [mEh]       1.10765513 [kcal/mol]       4.63442906 [kJ/mol]
      Disp20 (SS)                  -4.94632877 [mEh]      -3.10386816 [kcal/mol]     -12.98658439 [kJ/mol]
      Disp20 (OS)                  -4.94632877 [mEh]      -3.10386816 [kcal/mol]     -12.98658439 [kJ/mol]
      Exch-Disp20 (SS)              1.10227707 [mEh]       0.69168930 [kcal/mol]       2.89402804 [kJ/mol]
      Exch-Disp20 (OS)              0.66288374 [mEh]       0.41596583 [kcal/mol]       1.74040102 [kJ/mol]

  Total HF                        -14.48191568 [mEh]      -9.08753929 [kcal/mol]     -38.02226438 [kJ/mol]
  Total SAPT0                     -22.60941241 [mEh]     -14.18762048 [kcal/mol]     -59.36100410 [kJ/mol]

  Special recipe for scaled SAPT0 (see Manual):
    Electrostatics sSAPT0         -28.66554500 [mEh]     -17.98790106 [kcal/mol]     -75.26137804 [kJ/mol]
    Exchange sSAPT0                26.12829306 [mEh]      16.39575143 [kcal/mol]      68.59982399 [kJ/mol]
    Induction sSAPT0              -11.70154213 [mEh]      -7.34282855 [kcal/mol]     -30.72239464 [kJ/mol]
    Dispersion sSAPT0              -8.07161877 [mEh]      -5.06501725 [kcal/mol]     -21.19203215 [kJ/mol]
  Total sSAPT0                    -22.31041284 [mEh]     -13.99999542 [kcal/mol]     -58.57598084 [kJ/mol]
  --------------------------------------------------------------------------------------------------------

*** Psi4 exiting successfully. Buy a developer a beer!
