                               Psi4 1.3.2 release

  ==> Input File <==

--------------------------------------------------------------------------
# Any line starting with the # character is a comment line
#! Sample  computation

memory 22 gb

molecule Dimer {
0 1
 C  4.049398   -0.828827    0.000176
 C  3.247016    0.459884   -0.000040
 C  1.760443    0.220850   -0.000000
 O  1.236241   -0.878912    0.000170
 O  1.072268    1.369100   -0.000207
 H  3.817270   -1.428575   -0.877388
 H  5.116293   -0.612175    0.000144
 H  3.817264   -1.428283    0.877938
 H  3.475344    1.077081   -0.870574
 H  3.475341    1.077370    0.870290
 H  0.107693    1.150346   -0.000207

 --
0 1
 H -1.121334   -1.154408   -0.000866
 C -3.332912   -0.889088   -0.000262
 C -1.920148   -0.398752   -0.000307
 O -1.622027    0.788593    0.000056
 H -3.434852   -1.548533    0.867614
 C -4.372343    0.216905    0.000405
 H -4.260830    0.850147    0.878240
 H -4.261159    0.850897   -0.876931
 H -5.376427   -0.202153    0.000413
 H -3.435183   -1.547795   -0.868661

units angstrom

no_reorient
symmetry c1
}

set globals{
  basis jun-cc-pvtz
}

energy('sapt0')

--------------------------------------------------------------------------

  //              Dimer HF             //
    Molecular point group: c1
  Charge       = 0
  Multiplicity = 1
  Basis Set: JUN-CC-PVTZ
    Blend: JUN-CC-PVTZ
  Basis Set: (JUN-CC-PVTZ AUX)
    Blend: JUN-CC-PVTZ-JKFIT
  @DF-RHF Final Energy:  -458.98799159900773
    Total Energy =                       -458.9879915990077279
  //            Monomer A HF           //
    Molecular point group: c1
  Multiplicity = 1
  Basis Set: JUN-CC-PVTZ
    Blend: JUN-CC-PVTZ
  Basis Set: (JUN-CC-PVTZ AUX)
    Blend: JUN-CC-PVTZ-JKFIT
  @DF-RHF Final Energy:  -266.95140420208025
    Total Energy =                       -266.9514042020802549
  //            Monomer B HF           //
    Molecular point group: c1

    Geometry (in Angstrom), charge = 0, multiplicity = 1:

       Center              X                  Y                   Z               Mass
    ------------   -----------------  -----------------  -----------------  -----------------
      Gh(C)           4.033795111402    -0.850683353090     0.000176151446    12.000000000000
      Gh(C)           3.231413111402     0.438027646910    -0.000039848554    12.000000000000
      Gh(C)           1.744840111402     0.198993646910     0.000000151446    12.000000000000
      Gh(O)           1.220638111402    -0.900768353090     0.000170151446    15.994914619570
      Gh(O)           1.056665111402     1.347243646910    -0.000206848554    15.994914619570
      Gh(H)           3.801667111402    -1.450431353090    -0.877387848554     1.007825032230
      Gh(H)           5.100690111402    -0.634031353090     0.000144151446     1.007825032230
      Gh(H)           3.801661111402    -1.450139353090     0.877938151446     1.007825032230
      Gh(H)           3.459741111402     1.055224646910    -0.870573848554     1.007825032230
      Gh(H)           3.459738111402     1.055513646910     0.870290151446     1.007825032230
      Gh(H)           0.092090111402     1.128489646910    -0.000206848554     1.007825032230
         H           -1.136936888598    -1.176264353090    -0.000865848554     1.007825032230
         C           -3.348514888598    -0.910944353090    -0.000261848554    12.000000000000
         C           -1.935750888598    -0.420608353090    -0.000306848554    12.000000000000
         O           -1.637629888598     0.766736646910     0.000056151446    15.994914619570
         H           -3.450454888598    -1.570389353090     0.867614151446     1.007825032230
         C           -4.387945888598     0.195048646910     0.000405151446    12.000000000000
         H           -4.276432888598     0.828290646910     0.878240151446     1.007825032230
         H           -4.276761888598     0.829040646910    -0.876930848554     1.007825032230
         H           -5.392029888598    -0.224009353090     0.000413151446     1.007825032230
         H           -3.450785888598    -1.569651353090    -0.868660848554     1.007825032230

  Charge       = 0
  Multiplicity = 1
  Basis Set: JUN-CC-PVTZ
    Blend: JUN-CC-PVTZ
  Basis Set: (JUN-CC-PVTZ AUX)
    Blend: JUN-CC-PVTZ-JKFIT

    Orbital Energies [Eh]
    ---------------------

    Doubly Occupied:

       1A    -20.556526     2A    -11.332765     3A    -11.245462
       4A    -11.221201     5A     -1.382990     6A     -1.064770
       7A     -0.914119     8A     -0.775937     9A     -0.681627
      10A     -0.635897    11A     -0.624575    12A     -0.541860
      13A     -0.525853    14A     -0.520849    15A     -0.488589
      16A     -0.424953

  @DF-RHF Final Energy:  -192.02340928857586

   => Energetics <=

    Nuclear Repulsion Energy =            118.7386575553097856
    One-Electron Energy =                -495.6481883398499235
    Two-Electron Energy =                 184.8861214959642894
    Total Energy =                       -192.0234092885758628

  Dipole Moment: [D]
     X:    -1.3359      Y:    -2.9085      Z:    -0.0009     Total:     3.2006

    SAPT Results
  --------------------------------------------------------------------------------------------------------
    Electrostatics                -27.20410243 [mEh]     -17.07083200 [kcal/mol]     -71.42436110 [kJ/mol]
      Elst10,r                    -27.20410243 [mEh]     -17.07083200 [kcal/mol]     -71.42436110 [kJ/mol]

    Exchange                       24.96462976 [mEh]      15.66554168 [kcal/mol]      65.54462641 [kJ/mol]
      Exch10                       24.96462976 [mEh]      15.66554168 [kcal/mol]      65.54462641 [kJ/mol]
      Exch10(S^2)                  24.72909671 [mEh]      15.51774246 [kcal/mol]      64.92623446 [kJ/mol]

    Induction                     -10.93863568 [mEh]      -6.86409752 [kcal/mol]     -28.71938402 [kJ/mol]
      Ind20,r                     -13.70444626 [mEh]      -8.59966986 [kcal/mol]     -35.98101870 [kJ/mol]
      Exch-Ind20,r                  7.24467071 [mEh]       4.54609950 [kcal/mol]      19.02088032 [kJ/mol]
      delta HF,r (2)               -4.47886013 [mEh]      -2.81052716 [kcal/mol]     -11.75924564 [kJ/mol]

    Dispersion                     -8.17819956 [mEh]      -5.13189770 [kcal/mol]     -21.47186000 [kJ/mol]
      Disp20                       -9.92686611 [mEh]      -6.22920253 [kcal/mol]     -26.06298339 [kJ/mol]
      Exch-Disp20                   1.74866655 [mEh]       1.09730483 [kcal/mol]       4.59112340 [kJ/mol]
      Disp20 (SS)                  -4.96343306 [mEh]      -3.11460127 [kcal/mol]     -13.03149170 [kJ/mol]
      Disp20 (OS)                  -4.96343306 [mEh]      -3.11460127 [kcal/mol]     -13.03149170 [kJ/mol]
      Exch-Disp20 (SS)              1.09163440 [mEh]       0.68501093 [kcal/mol]       2.86608573 [kJ/mol]
      Exch-Disp20 (OS)              0.65703215 [mEh]       0.41229390 [kcal/mol]       1.72503767 [kJ/mol]

  Total HF                        -13.17810835 [mEh]      -8.26938784 [kcal/mol]     -34.59911871 [kJ/mol]
  Total SAPT0                     -21.35630792 [mEh]     -13.40128554 [kcal/mol]     -56.07097871 [kJ/mol]

  Special recipe for scaled SAPT0 (see Manual):
    Electrostatics sSAPT0         -27.20410243 [mEh]     -17.07083200 [kcal/mol]     -71.42436110 [kJ/mol]
    Exchange sSAPT0                24.96462976 [mEh]      15.66554168 [kcal/mol]      65.54462641 [kJ/mol]
    Induction sSAPT0              -10.72965151 [mEh]      -6.73295797 [kcal/mol]     -28.17069615 [kJ/mol]
    Dispersion sSAPT0              -8.12775647 [mEh]      -5.10024418 [kcal/mol]     -21.33942166 [kJ/mol]
  Total sSAPT0                    -21.09688064 [mEh]     -13.23849247 [kcal/mol]     -55.38985250 [kJ/mol]
  --------------------------------------------------------------------------------------------------------

*** Psi4 exiting successfully. Buy a developer a beer!
