                               Psi4 1.3.2 release

  ==> Input File <==

--------------------------------------------------------------------------
# Any line starting with the # character is a comment line
#! Sample  computation

memory 22 gb

molecule Dimer {
0 1
 C 2.710360    0.397720   -0.683045
 C 1.982910   -0.769488   -0.042629
 O 1.349528   -0.409175    1.180644
 H 2.008083    1.189014   -0.947703
 H 3.221853    0.079914   -1.592498
 H 3.445212    0.808295    0.007354
 H 1.253368   -1.191184   -0.742229
 H 2.685504   -1.560986    0.213977
 H 0.660104    0.233341    0.962724

 --
0 1
 C   -0.950863    1.885264    0.330365
 C   -1.355957    0.886596   -0.463221
 C   -2.365005   -0.150449   -0.084965
 C   -1.797324   -1.567350   -0.182834
 H   -0.218425    2.608670   -0.001014
 H   -1.359094    2.005040    1.326531
 H   -0.925618    0.802120   -1.458367
 H   -2.722126    0.044949    0.927920
 H   -3.227337   -0.064124   -0.751615
 H   -1.443197   -1.771016   -1.194244
 H   -0.960226   -1.696879    0.502577
 H   -2.559052   -2.307513    0.059404

units angstrom

no_reorient
symmetry c1
}

set globals{
  basis jun-cc-pvtz
}

energy('sapt0')

--------------------------------------------------------------------------

  //              Dimer HF             //
    Molecular point group: c1
  Charge       = 0
  Multiplicity = 1
  Basis Set: JUN-CC-PVTZ
    Blend: JUN-CC-PVTZ
  Basis Set: (JUN-CC-PVTZ AUX)
    Blend: JUN-CC-PVTZ-JKFIT
  @DF-RHF Final Energy:  -310.30795706667936
    Total Energy =                       -310.3079570666793643
  //            Monomer A HF           //
    Molecular point group: c1
  Multiplicity = 1
  Basis Set: JUN-CC-PVTZ
    Blend: JUN-CC-PVTZ
  Basis Set: (JUN-CC-PVTZ AUX)
    Blend: JUN-CC-PVTZ-JKFIT
  @DF-RHF Final Energy:  -154.14420916000500
    Total Energy =                       -154.1442091600050048
  //            Monomer B HF           //
    Molecular point group: c1

    Geometry (in Angstrom), charge = 0, multiplicity = 1:

       Center              X                  Y                   Z               Mass
    ------------   -----------------  -----------------  -----------------  -----------------
      Gh(C)           2.709057577128     0.389728004015    -0.709098137644    12.000000000000
      Gh(C)           1.981607577128    -0.777479995985    -0.068682137644    12.000000000000
      Gh(O)           1.348225577128    -0.417166995985     1.154590862356    15.994914619570
      Gh(H)           2.006780577128     1.181022004015    -0.973756137644     1.007825032230
      Gh(H)           3.220550577128     0.071922004015    -1.618551137644     1.007825032230
      Gh(H)           3.443909577128     0.800303004015    -0.018699137644     1.007825032230
      Gh(H)           1.252065577128    -1.199175995985    -0.768282137644     1.007825032230
      Gh(H)           2.684201577128    -1.568977995985     0.187923862356     1.007825032230
      Gh(H)           0.658801577128     0.225349004015     0.936670862356     1.007825032230
         C           -0.952165422872     1.877272004015     0.304311862356    12.000000000000
         C           -1.357259422872     0.878604004015    -0.489274137644    12.000000000000
         C           -2.366307422872    -0.158440995985    -0.111018137644    12.000000000000
         C           -1.798626422872    -1.575341995985    -0.208887137644    12.000000000000
         H           -0.219727422872     2.600678004015    -0.027067137644     1.007825032230
         H           -1.360396422872     1.997048004015     1.300477862356     1.007825032230
         H           -0.926920422872     0.794128004015    -1.484420137644     1.007825032230
         H           -2.723428422872     0.036957004015     0.901866862356     1.007825032230
         H           -3.228639422872    -0.072115995985    -0.777668137644     1.007825032230
         H           -1.444499422872    -1.779007995985    -1.220297137644     1.007825032230
         H           -0.961528422872    -1.704870995985     0.476523862356     1.007825032230
         H           -2.560354422872    -2.315504995985     0.033350862356     1.007825032230

  Charge       = 0
  Multiplicity = 1
  Basis Set: JUN-CC-PVTZ
    Blend: JUN-CC-PVTZ
  Basis Set: (JUN-CC-PVTZ AUX)
    Blend: JUN-CC-PVTZ-JKFIT

    Orbital Energies [Eh]
    ---------------------

    Doubly Occupied:

       1A    -11.231725     2A    -11.224958     3A    -11.217891
       4A    -11.214801     5A     -1.080538     6A     -0.988070
       7A     -0.856189     8A     -0.755640     9A     -0.642572
      10A     -0.606443    11A     -0.586478    12A     -0.534498
      13A     -0.517805    14A     -0.487452    15A     -0.476959
      16A     -0.356712

  @DF-RHF Final Energy:  -156.16442028500822

   => Energetics <=

    Nuclear Repulsion Energy =            117.3305482225687655
    One-Electron Energy =                -441.4324726257722773
    Two-Electron Energy =                 167.9375041181952781
    Total Energy =                       -156.1644202850082195

  Dipole Moment: [D]
     X:    -0.2459      Y:    -0.3581      Z:    -0.0979     Total:     0.4453

    SAPT Results
  --------------------------------------------------------------------------------------------------------
    Electrostatics                 -9.11386913 [mEh]      -5.71903922 [kcal/mol]     -23.92846012 [kJ/mol]
      Elst10,r                     -9.11386913 [mEh]      -5.71903922 [kcal/mol]     -23.92846012 [kJ/mol]

    Exchange                       12.80238340 [mEh]       8.03361687 [kcal/mol]      33.61265298 [kJ/mol]
      Exch10                       12.80238340 [mEh]       8.03361687 [kcal/mol]      33.61265298 [kJ/mol]
      Exch10(S^2)                  12.71478000 [mEh]       7.97864491 [kcal/mol]      33.38265029 [kJ/mol]

    Induction                      -3.01613593 [mEh]      -1.89265387 [kcal/mol]      -7.91886379 [kJ/mol]
      Ind20,r                      -6.31491126 [mEh]      -3.96266664 [kcal/mol]     -16.57979722 [kJ/mol]
      Exch-Ind20,r                  4.72397181 [mEh]       2.96433707 [kcal/mol]      12.40278629 [kJ/mol]
      delta HF,r (2)               -1.42519648 [mEh]      -0.89432430 [kcal/mol]      -3.74185285 [kJ/mol]

    Dispersion                     -8.27627243 [mEh]      -5.19343936 [kcal/mol]     -21.72935028 [kJ/mol]
      Disp20                       -9.60394131 [mEh]      -6.02656416 [kcal/mol]     -25.21514444 [kJ/mol]
      Exch-Disp20                   1.32766888 [mEh]       0.83312480 [kcal/mol]       3.48579416 [kJ/mol]
      Disp20 (SS)                  -4.80197066 [mEh]      -3.01328208 [kcal/mol]     -12.60757222 [kJ/mol]
      Disp20 (OS)                  -4.80197066 [mEh]      -3.01328208 [kcal/mol]     -12.60757222 [kJ/mol]
      Exch-Disp20 (SS)              0.86044866 [mEh]       0.53993968 [kcal/mol]       2.25910764 [kJ/mol]
      Exch-Disp20 (OS)              0.46722022 [mEh]       0.29318512 [kcal/mol]       1.22668652 [kJ/mol]

  Total HF                          0.67237833 [mEh]       0.42192377 [kcal/mol]       1.76532907 [kJ/mol]
  Total SAPT0                      -7.60389410 [mEh]      -4.77151559 [kcal/mol]     -19.96402121 [kJ/mol]

  Special recipe for scaled SAPT0 (see Manual):
    Electrostatics sSAPT0          -9.11386913 [mEh]      -5.71903922 [kcal/mol]     -23.92846012 [kJ/mol]
    Exchange sSAPT0                12.80238340 [mEh]       8.03361687 [kcal/mol]      33.61265298 [kJ/mol]
    Induction sSAPT0               -2.91781874 [mEh]      -1.83095890 [kcal/mol]      -7.66073205 [kJ/mol]
    Dispersion sSAPT0              -8.24864046 [mEh]      -5.17610003 [kcal/mol]     -21.65680254 [kJ/mol]
  Total sSAPT0                     -7.47794494 [mEh]      -4.69248129 [kcal/mol]     -19.63334173 [kJ/mol]
  --------------------------------------------------------------------------------------------------------

*** Psi4 exiting successfully. Buy a developer a beer!
