                               Psi4 1.3.2 release

  ==> Input File <==

--------------------------------------------------------------------------
# Any line starting with the # character is a comment line
#! Sample  computation

memory 22 gb

molecule Dimer {
0 1
 C -2.252448   -0.142485   -0.711092
 C -2.116278   -0.781791    0.661770
 H -1.448923   -0.513934   -1.353787
 H -3.191212   -0.482878   -1.156183
 O -0.897788   -0.433360    1.312681
 H -2.910877   -0.426688    1.319202
 H -2.211351   -1.869551    0.581864
 H -0.173756   -0.756510    0.757920
 C -2.215016    1.378784   -0.652814
 H -2.301834    1.816139   -1.646926
 H -3.036713    1.759399   -0.044591
 H -1.284005    1.722853   -0.205572

 --
0 1
 C   1.555588   -1.822020   -0.466532
 C   1.799183   -0.540940   -0.768490
 C   2.650706    0.383847    0.041607
 C   1.885926    1.635165    0.476926
 H   0.931313   -2.440643   -1.097192
 H   1.990451   -2.279624    0.413627
 H   1.345024   -0.119257   -1.661884
 H   3.036152   -0.148387    0.913344
 H   3.514038    0.684035   -0.558586
 H   1.501780    2.171746   -0.391615
 H   1.040087    1.373759    1.111996
 H   2.536165    2.313060    1.028684

units angstrom

no_reorient
symmetry c1
}

set globals{
  basis jun-cc-pvtz
}

energy('sapt0')

--------------------------------------------------------------------------

  //              Dimer HF             //
    Molecular point group: c1
  Charge       = 0
  Multiplicity = 1
  Basis Set: JUN-CC-PVTZ
    Blend: JUN-CC-PVTZ
  Basis Set: (JUN-CC-PVTZ AUX)
    Blend: JUN-CC-PVTZ-JKFIT
  @DF-RHF Final Energy:  -349.35532728480121
    Total Energy =                       -349.3553272848012057
  //            Monomer A HF           //
    Molecular point group: c1
  Multiplicity = 1
  Basis Set: JUN-CC-PVTZ
    Blend: JUN-CC-PVTZ
  Basis Set: (JUN-CC-PVTZ AUX)
    Blend: JUN-CC-PVTZ-JKFIT
  @DF-RHF Final Energy:  -193.19151380225671
    Total Energy =                       -193.1915138022567078
  //            Monomer B HF           //
    Molecular point group: c1

    Geometry (in Angstrom), charge = 0, multiplicity = 1:

       Center              X                  Y                   Z               Mass
    ------------   -----------------  -----------------  -----------------  -----------------
      Gh(C)          -2.258157910157    -0.118549615766    -0.728035249295    12.000000000000
      Gh(C)          -2.121987910157    -0.757855615766     0.644826750705    12.000000000000
      Gh(H)          -1.454632910157    -0.489998615766    -1.370730249295     1.007825032230
      Gh(H)          -3.196921910157    -0.458942615766    -1.173126249295     1.007825032230
      Gh(O)          -0.903497910157    -0.409424615766     1.295737750705    15.994914619570
      Gh(H)          -2.916586910157    -0.402752615766     1.302258750705     1.007825032230
      Gh(H)          -2.217060910157    -1.845615615766     0.564920750705     1.007825032230
      Gh(H)          -0.179465910157    -0.732574615766     0.740976750705     1.007825032230
      Gh(C)          -2.220725910157     1.402719384234    -0.669757249295    12.000000000000
      Gh(H)          -2.307543910157     1.840074384234    -1.663869249295     1.007825032230
      Gh(H)          -3.042422910157     1.783334384234    -0.061534249295     1.007825032230
      Gh(H)          -1.289714910157     1.746788384234    -0.222515249295     1.007825032230
         C            1.549878089843    -1.798084615766    -0.483475249295    12.000000000000
         C            1.793473089843    -0.517004615766    -0.785433249295    12.000000000000
         C            2.644996089843     0.407782384234     0.024663750705    12.000000000000
         C            1.880216089843     1.659100384234     0.459982750705    12.000000000000
         H            0.925603089843    -2.416707615766    -1.114135249295     1.007825032230
         H            1.984741089843    -2.255688615766     0.396683750705     1.007825032230
         H            1.339314089843    -0.095321615766    -1.678827249295     1.007825032230
         H            3.030442089843    -0.124451615766     0.896400750705     1.007825032230
         H            3.508328089843     0.707970384234    -0.575529249295     1.007825032230
         H            1.496070089843     2.195681384234    -0.408558249295     1.007825032230
         H            1.034377089843     1.397694384234     1.095052750705     1.007825032230
         H            2.530455089843     2.336995384234     1.011740750705     1.007825032230

  Charge       = 0
  Multiplicity = 1
  Basis Set: JUN-CC-PVTZ
    Blend: JUN-CC-PVTZ
  Basis Set: (JUN-CC-PVTZ AUX)
    Blend: JUN-CC-PVTZ-JKFIT

    Orbital Energies [Eh]
    ---------------------

    Doubly Occupied:

       1A    -11.231723     2A    -11.225031     3A    -11.217911
       4A    -11.214877     5A     -1.080471     6A     -0.988080
       7A     -0.856236     8A     -0.755729     9A     -0.642175
      10A     -0.606581    11A     -0.586698    12A     -0.534260
      13A     -0.517967    14A     -0.487519    15A     -0.477033
      16A     -0.356615

  @DF-RHF Final Energy:  -156.16441460428504

   => Energetics <=

    Nuclear Repulsion Energy =            117.3059786289733779
    One-Electron Energy =                -441.3829754889147807
    Two-Electron Energy =                 167.9125822556563605
    Total Energy =                       -156.1644146042850423

  Dipole Moment: [D]
     X:     0.1893      Y:     0.4000      Z:     0.0668     Total:     0.4476

    SAPT Results
  --------------------------------------------------------------------------------------------------------
    Electrostatics                 -9.58062459 [mEh]      -6.01193269 [kcal/mol]     -25.15392640 [kJ/mol]
      Elst10,r                     -9.58062459 [mEh]      -6.01193269 [kcal/mol]     -25.15392640 [kJ/mol]

    Exchange                       13.50294158 [mEh]       8.47322377 [kcal/mol]      35.45196824 [kJ/mol]
      Exch10                       13.50294158 [mEh]       8.47322377 [kcal/mol]      35.45196824 [kJ/mol]
      Exch10(S^2)                  13.40296479 [mEh]       8.41048738 [kcal/mol]      35.18947920 [kJ/mol]

    Induction                      -3.32119525 [mEh]      -2.08408148 [kcal/mol]      -8.71979693 [kJ/mol]
      Ind20,r                      -6.59899810 [mEh]      -4.14093382 [kcal/mol]     -17.32566712 [kJ/mol]
      Exch-Ind20,r                  4.82778672 [mEh]       3.02948191 [kcal/mol]      12.67535229 [kJ/mol]
      delta HF,r (2)               -1.54998388 [mEh]      -0.97262957 [kcal/mol]      -4.06948211 [kJ/mol]

    Dispersion                     -8.62718048 [mEh]      -5.41363748 [kcal/mol]     -22.65065922 [kJ/mol]
      Disp20                      -10.00694600 [mEh]      -6.27945342 [kcal/mol]     -26.27323311 [kJ/mol]
      Exch-Disp20                   1.37976553 [mEh]       0.86581594 [kcal/mol]       3.62257389 [kJ/mol]
      Disp20 (SS)                  -5.00347300 [mEh]      -3.13972671 [kcal/mol]     -13.13661655 [kJ/mol]
      Disp20 (OS)                  -5.00347300 [mEh]      -3.13972671 [kcal/mol]     -13.13661655 [kJ/mol]
      Exch-Disp20 (SS)              0.89750547 [mEh]       0.56319318 [kcal/mol]       2.35640028 [kJ/mol]
      Exch-Disp20 (OS)              0.48226006 [mEh]       0.30262276 [kcal/mol]       1.26617361 [kJ/mol]

  Total HF                          0.60112174 [mEh]       0.37720959 [kcal/mol]       1.57824491 [kJ/mol]
  Total SAPT0                      -8.02605874 [mEh]      -5.03642789 [kcal/mol]     -21.07241431 [kJ/mol]

  Special recipe for scaled SAPT0 (see Manual):
    Electrostatics sSAPT0          -9.58062459 [mEh]      -6.01193269 [kcal/mol]     -25.15392640 [kJ/mol]
    Exchange sSAPT0                13.50294158 [mEh]       8.47322377 [kcal/mol]      35.45196824 [kJ/mol]
    Induction sSAPT0               -3.21235158 [mEh]      -2.01578105 [kcal/mol]      -8.43402791 [kJ/mol]
    Dispersion sSAPT0              -8.59607331 [mEh]      -5.39411744 [kcal/mol]     -22.56898738 [kJ/mol]
  Total sSAPT0                     -7.88610790 [mEh]      -4.94860742 [kcal/mol]     -20.70497345 [kJ/mol]
  --------------------------------------------------------------------------------------------------------

*** Psi4 exiting successfully. Buy a developer a beer!
