                               Psi4 1.3.2 release

  ==> Input File <==

--------------------------------------------------------------------------
# Any line starting with the # character is a comment line
#! Sample  computation

memory 22 gb

molecule Dimer {
0 1
 C -2.241798   -0.699003   -0.460903
 C -1.746733   -1.181311    0.894962
 H -1.459360   -0.868850   -1.208733
 H -3.081517   -1.342301   -0.741070
 O -0.534949   -0.566905    1.325426
 H -2.484553   -0.943853    1.662840
 H -1.631372   -2.270454    0.874769
 H  0.145745   -0.789013    0.674148
 C -2.693229    0.760191   -0.508660
 H -3.263475    0.914837   -1.427643
 H -3.387525    0.941043    0.316922
 C -1.556398    1.776676   -0.456272
 H -0.846830    1.595530   -1.266448
 H -1.938762    2.791294   -0.571009
 H -1.012378    1.712157    0.482492

 --
0 1
 C   1.751474   -1.741106   -0.788654
 C   2.030032   -0.435856   -0.891690
 C   2.975266    0.310117   -0.004721
 C   2.291439    1.475693    0.712503
 H   1.057998   -2.224457   -1.463733
 H   2.225930   -2.353880   -0.031935
 H   1.533510    0.144999   -1.664974
 H   3.411269   -0.378980    0.721135
 H   3.796982    0.697962   -0.612946
 H   1.848668    2.164994   -0.007238
 H   1.495980    1.119538    1.366242
 H   3.008958    2.032261    1.314384

units angstrom

no_reorient
symmetry c1
}

set globals{
  basis jun-cc-pvtz
}

energy('sapt0')

--------------------------------------------------------------------------

  //              Dimer HF             //
    Molecular point group: c1
  Charge       = 0
  Multiplicity = 1
  Basis Set: JUN-CC-PVTZ
    Blend: JUN-CC-PVTZ
  Basis Set: (JUN-CC-PVTZ AUX)
    Blend: JUN-CC-PVTZ-JKFIT
  @DF-RHF Final Energy:  -388.39959511351128
    Total Energy =                       -388.3995951135112819
  //            Monomer A HF           //
    Molecular point group: c1
  Multiplicity = 1
  Basis Set: JUN-CC-PVTZ
    Blend: JUN-CC-PVTZ
  Basis Set: (JUN-CC-PVTZ AUX)
    Blend: JUN-CC-PVTZ-JKFIT
  @DF-RHF Final Energy:  -232.23607414361493
    Total Energy =                       -232.2360741436149283
  //            Monomer B HF           //
    Molecular point group: c1

    Geometry (in Angstrom), charge = 0, multiplicity = 1:

       Center              X                  Y                   Z               Mass
    ------------   -----------------  -----------------  -----------------  -----------------
      Gh(C)          -2.246246401803    -0.676588482732    -0.472918707324    12.000000000000
      Gh(C)          -1.751181401803    -1.158896482732     0.882946292676    12.000000000000
      Gh(H)          -1.463808401803    -0.846435482732    -1.220748707324     1.007825032230
      Gh(H)          -3.085965401803    -1.319886482732    -0.753085707324     1.007825032230
      Gh(O)          -0.539397401803    -0.544490482732     1.313410292676    15.994914619570
      Gh(H)          -2.489001401803    -0.921438482732     1.650824292676     1.007825032230
      Gh(H)          -1.635820401803    -2.248039482732     0.862753292676     1.007825032230
      Gh(H)           0.141296598197    -0.766598482732     0.662132292676     1.007825032230
      Gh(C)          -2.697677401803     0.782605517268    -0.520675707324    12.000000000000
      Gh(H)          -3.267923401803     0.937251517268    -1.439658707324     1.007825032230
      Gh(H)          -3.391973401803     0.963457517268     0.304906292676     1.007825032230
      Gh(C)          -1.560846401803     1.799090517268    -0.468287707324    12.000000000000
      Gh(H)          -0.851278401803     1.617944517268    -1.278463707324     1.007825032230
      Gh(H)          -1.943210401803     2.813708517268    -0.583024707324     1.007825032230
      Gh(H)          -1.016826401803     1.734571517268     0.470476292676     1.007825032230
         C            1.747025598197    -1.718691482732    -0.800669707324    12.000000000000
         C            2.025583598197    -0.413441482732    -0.903705707324    12.000000000000
         C            2.970817598197     0.332531517268    -0.016736707324    12.000000000000
         C            2.286990598197     1.498107517268     0.700487292676    12.000000000000
         H            1.053549598197    -2.202042482732    -1.475748707324     1.007825032230
         H            2.221481598197    -2.331465482732    -0.043950707324     1.007825032230
         H            1.529061598197     0.167413517268    -1.676989707324     1.007825032230
         H            3.406820598197    -0.356565482732     0.709119292676     1.007825032230
         H            3.792533598197     0.720376517268    -0.624961707324     1.007825032230
         H            1.844219598197     2.187408517268    -0.019253707324     1.007825032230
         H            1.491531598197     1.141952517268     1.354226292676     1.007825032230
         H            3.004509598197     2.054675517268     1.302368292676     1.007825032230

  Charge       = 0
  Multiplicity = 1
  Basis Set: JUN-CC-PVTZ
    Blend: JUN-CC-PVTZ
  Basis Set: (JUN-CC-PVTZ AUX)
    Blend: JUN-CC-PVTZ-JKFIT

    Orbital Energies [Eh]
    ---------------------

    Doubly Occupied:

       1A    -11.231715     2A    -11.225050     3A    -11.217934
       4A    -11.214816     5A     -1.080462     6A     -0.987979
       7A     -0.856355     8A     -0.755663     9A     -0.642460
      10A     -0.606569    11A     -0.585941    12A     -0.534584
      13A     -0.518316    14A     -0.487235    15A     -0.477043
      16A     -0.356620

  @DF-RHF Final Energy:  -156.16442843291037

   => Energetics <=

    Nuclear Repulsion Energy =            117.3215670575374219
    One-Electron Energy =                -441.4145052222341974
    Two-Electron Energy =                 167.9285097317863915
    Total Energy =                       -156.1644284329103698

  Dipole Moment: [D]
     X:     0.2070      Y:     0.3768      Z:     0.1194     Total:     0.4462

    SAPT Results
  --------------------------------------------------------------------------------------------------------
    Electrostatics                 -9.64876766 [mEh]      -6.05469312 [kcal/mol]     -25.33283601 [kJ/mol]
      Elst10,r                     -9.64876766 [mEh]      -6.05469312 [kcal/mol]     -25.33283601 [kJ/mol]

    Exchange                       13.97872925 [mEh]       8.77178503 [kcal/mol]      36.70114858 [kJ/mol]
      Exch10                       13.97872925 [mEh]       8.77178503 [kcal/mol]      36.70114858 [kJ/mol]
      Exch10(S^2)                  13.87232178 [mEh]       8.70501334 [kcal/mol]      36.42177582 [kJ/mol]

    Induction                      -3.42249857 [mEh]      -2.14765028 [kcal/mol]      -8.98576875 [kJ/mol]
      Ind20,r                      -6.75280604 [mEh]      -4.23744976 [kcal/mol]     -17.72948981 [kJ/mol]
      Exch-Ind20,r                  4.93828420 [mEh]       3.09882012 [kcal/mol]      12.96546337 [kJ/mol]
      delta HF,r (2)               -1.60797673 [mEh]      -1.00902063 [kcal/mol]      -4.22174232 [kJ/mol]

    Dispersion                     -9.39160815 [mEh]      -5.89332309 [kcal/mol]     -24.65766381 [kJ/mol]
      Disp20                      -10.82697926 [mEh]      -6.79403206 [kcal/mol]     -28.42623012 [kJ/mol]
      Exch-Disp20                   1.43537110 [mEh]       0.90070897 [kcal/mol]       3.76856631 [kJ/mol]
      Disp20 (SS)                  -5.41348963 [mEh]      -3.39701603 [kcal/mol]     -14.21311506 [kJ/mol]
      Disp20 (OS)                  -5.41348963 [mEh]      -3.39701603 [kcal/mol]     -14.21311506 [kJ/mol]
      Exch-Disp20 (SS)              0.93474992 [mEh]       0.58656443 [kcal/mol]       2.45418558 [kJ/mol]
      Exch-Disp20 (OS)              0.50062118 [mEh]       0.31414454 [kcal/mol]       1.31438074 [kJ/mol]

  Total HF                          0.90746301 [mEh]       0.56944164 [kcal/mol]       2.38254382 [kJ/mol]
  Total SAPT0                      -8.48414514 [mEh]      -5.32388145 [kcal/mol]     -22.27511999 [kJ/mol]

  Special recipe for scaled SAPT0 (see Manual):
    Electrostatics sSAPT0          -9.64876766 [mEh]      -6.05469312 [kcal/mol]     -25.33283601 [kJ/mol]
    Exchange sSAPT0                13.97872925 [mEh]       8.77178503 [kcal/mol]      36.70114858 [kJ/mol]
    Induction sSAPT0               -3.30798756 [mEh]      -2.07579353 [kcal/mol]      -8.68512013 [kJ/mol]
    Dispersion sSAPT0              -9.35832416 [mEh]      -5.87243707 [kcal/mol]     -24.57027671 [kJ/mol]
  Total sSAPT0                     -8.33635014 [mEh]      -5.23113869 [kcal/mol]     -21.88708427 [kJ/mol]
  --------------------------------------------------------------------------------------------------------

*** Psi4 exiting successfully. Buy a developer a beer!
