                               Psi4 1.3.2 release

  ==> Input File <==

--------------------------------------------------------------------------
# Any line starting with the # character is a comment line
#! Sample  computation

memory 22 gb

molecule Dimer {
0 1
 C -1.730604    1.043445   -0.252396
 C -1.553085   -0.290170    0.448957
 O -0.828115   -1.225656   -0.342625
 H -0.763230    1.510549   -0.440271
 H -2.324418    1.724357    0.358768
 H -2.232804    0.901500   -1.207782
 H -1.064566   -0.148213    1.418443
 H -2.521037   -0.752616    0.635859
 H  0.078328   -0.898435   -0.405348

 --
0 1
 C   2.041242    0.226120    0.723003
 H   2.236643   -0.592120    1.402247
 H   1.587936    1.117350    1.135233
 C   2.351994    0.141982   -0.572965
 H   2.159634    0.961241   -1.251915
 H   2.811151   -0.746620   -0.983827

units angstrom

no_reorient
symmetry c1
}

set globals{
  basis jun-cc-pvtz
}

energy('sapt0')

--------------------------------------------------------------------------

  //              Dimer HF             //
    Molecular point group: c1
  Charge       = 0
  Multiplicity = 1
  Basis Set: JUN-CC-PVTZ
    Blend: JUN-CC-PVTZ
  Basis Set: (JUN-CC-PVTZ AUX)
    Blend: JUN-CC-PVTZ-JKFIT
  @DF-RHF Final Energy:  -232.20855934025718
    Total Energy =                       -232.2085593402571817
  //            Monomer A HF           //
    Molecular point group: c1
  Multiplicity = 1
  Basis Set: JUN-CC-PVTZ
    Blend: JUN-CC-PVTZ
  Basis Set: (JUN-CC-PVTZ AUX)
    Blend: JUN-CC-PVTZ-JKFIT
  @DF-RHF Final Energy:  -154.14421611701363
    Total Energy =                       -154.1442161170136274
  //            Monomer B HF           //
    Molecular point group: c1

    Geometry (in Angstrom), charge = 0, multiplicity = 1:

       Center              X                  Y                   Z               Mass
    ------------   -----------------  -----------------  -----------------  -----------------
      Gh(C)          -1.731094313035     1.084575529605    -0.243560315836    12.000000000000
      Gh(C)          -1.553575313035    -0.249039470395     0.457792684164    12.000000000000
      Gh(O)          -0.828605313035    -1.184525470395    -0.333789315836    15.994914619570
      Gh(H)          -0.763720313035     1.551679529605    -0.431435315836     1.007825032230
      Gh(H)          -2.324908313035     1.765487529605     0.367603684164     1.007825032230
      Gh(H)          -2.233294313035     0.942630529605    -1.198946315836     1.007825032230
      Gh(H)          -1.065056313035    -0.107082470395     1.427278684164     1.007825032230
      Gh(H)          -2.521527313035    -0.711485470395     0.644694684164     1.007825032230
      Gh(H)           0.077837686965    -0.857304470395    -0.396512315836     1.007825032230
         C            2.040751686965     0.267250529605     0.731838684164    12.000000000000
         H            2.236152686965    -0.550989470395     1.411082684164     1.007825032230
         H            1.587445686965     1.158480529605     1.144068684164     1.007825032230
         C            2.351503686965     0.183112529605    -0.564129315836    12.000000000000
         H            2.159143686965     1.002371529605    -1.243079315836     1.007825032230
         H            2.810660686965    -0.705489470395    -0.974991315836     1.007825032230

  Charge       = 0
  Multiplicity = 1
  Basis Set: JUN-CC-PVTZ
    Blend: JUN-CC-PVTZ
  Basis Set: (JUN-CC-PVTZ AUX)
    Blend: JUN-CC-PVTZ-JKFIT

    Orbital Energies [Eh]
    ---------------------

    Doubly Occupied:

       1A    -11.231867     2A    -11.230173     3A     -1.033756
       4A     -0.793558     5A     -0.644552     6A     -0.587186
       7A     -0.508981     8A     -0.376476

  @DF-RHF Final Energy:   -78.06434398644544

   => Energetics <=

    Nuclear Repulsion Energy =             33.3764361400388267
    One-Electron Energy =                -170.0684601608103321
    Two-Electron Energy =                  58.6276800343260689
    Total Energy =                        -78.0643439864454365

  Dipole Moment: [D]
     X:     0.0070      Y:     0.0023      Z:     0.0010     Total:     0.0075

    SAPT Results
  --------------------------------------------------------------------------------------------------------
    Electrostatics                 -6.93036937 [mEh]      -4.34887244 [kcal/mol]     -18.19568228 [kJ/mol]
      Elst10,r                     -6.93036937 [mEh]      -4.34887244 [kcal/mol]     -18.19568228 [kJ/mol]

    Exchange                        9.15202866 [mEh]       5.74298469 [kcal/mol]      24.02864794 [kJ/mol]
      Exch10                        9.15202866 [mEh]       5.74298469 [kcal/mol]      24.02864794 [kJ/mol]
      Exch10(S^2)                   9.08298426 [mEh]       5.69965868 [kcal/mol]      23.84737190 [kJ/mol]

    Induction                      -2.22089609 [mEh]      -1.39363334 [kcal/mol]      -5.83096188 [kJ/mol]
      Ind20,r                      -4.67768541 [mEh]      -2.93529191 [kcal/mol]     -12.28126135 [kJ/mol]
      Exch-Ind20,r                  3.50303810 [mEh]       2.19818960 [kcal/mol]       9.19722527 [kJ/mol]
      delta HF,r (2)               -1.04624878 [mEh]      -0.65653102 [kcal/mol]      -2.74692579 [kJ/mol]

    Dispersion                     -5.45464111 [mEh]      -3.42283897 [kcal/mol]     -14.32115827 [kJ/mol]
      Disp20                       -6.38818817 [mEh]      -4.00864860 [kcal/mol]     -16.77218573 [kJ/mol]
      Exch-Disp20                   0.93354706 [mEh]       0.58580962 [kcal/mol]       2.45102746 [kJ/mol]
      Disp20 (SS)                  -3.19409408 [mEh]      -2.00432430 [kcal/mol]      -8.38609286 [kJ/mol]
      Disp20 (OS)                  -3.19409408 [mEh]      -2.00432430 [kcal/mol]      -8.38609286 [kJ/mol]
      Exch-Disp20 (SS)              0.60649244 [mEh]       0.38057975 [kcal/mol]       1.59234569 [kJ/mol]
      Exch-Disp20 (OS)              0.32705461 [mEh]       0.20522987 [kcal/mol]       0.85868176 [kJ/mol]

  Total HF                          0.00076320 [mEh]       0.00047892 [kcal/mol]       0.00200379 [kJ/mol]
  Total SAPT0                      -5.45387791 [mEh]      -3.42236006 [kcal/mol]     -14.31915448 [kJ/mol]

  Special recipe for scaled SAPT0 (see Manual):
    Electrostatics sSAPT0          -6.93036937 [mEh]      -4.34887244 [kcal/mol]     -18.19568228 [kJ/mol]
    Exchange sSAPT0                 9.15202866 [mEh]       5.74298469 [kcal/mol]      24.02864794 [kJ/mol]
    Induction sSAPT0               -2.14040216 [mEh]      -1.34312263 [kcal/mol]      -5.61962510 [kJ/mol]
    Dispersion sSAPT0              -5.43318977 [mEh]      -3.40937805 [kcal/mol]     -14.26483778 [kJ/mol]
  Total sSAPT0                     -5.35193264 [mEh]      -3.35838844 [kcal/mol]     -14.05149722 [kJ/mol]
  --------------------------------------------------------------------------------------------------------

*** Psi4 exiting successfully. Buy a developer a beer!
