                               Psi4 1.3.2 release

  ==> Input File <==

--------------------------------------------------------------------------
# Any line starting with the # character is a comment line
#! Sample  computation

memory 22 gb

molecule Dimer {
0 1
 C -1.377979   -0.382524    0.704157
 C -0.915909    1.024600    0.359938
 H -0.502396   -1.034777    0.769205
 H -1.830364   -0.362772    1.699392
 O -0.251448    1.092396   -0.898161
 H -1.777745    1.687632    0.273169
 H -0.273655    1.417944    1.154771
 H  0.598730    0.646429   -0.790713
 C -2.365562   -0.933094   -0.315930
 H -2.665122   -1.951166   -0.070027
 H -3.264715   -0.316447   -0.349377
 H -1.925007   -0.933812   -1.311174

 --
0 1
 C   2.604702   -0.790079   -0.447526
 H   2.108388   -1.750542   -0.424290
 H   3.113345   -0.515539   -1.361356
 C   2.595389    0.022388    0.612269
 H   3.094649    0.981176    0.589983
 H   2.091627   -0.255043    1.528255

units angstrom

no_reorient
symmetry c1
}

set globals{
  basis jun-cc-pvtz
}

energy('sapt0')

--------------------------------------------------------------------------

  //              Dimer HF             //
    Molecular point group: c1
  Charge       = 0
  Multiplicity = 1
  Basis Set: JUN-CC-PVTZ
    Blend: JUN-CC-PVTZ
  Basis Set: (JUN-CC-PVTZ AUX)
    Blend: JUN-CC-PVTZ-JKFIT
  @DF-RHF Final Energy:  -271.25578514916316
    Total Energy =                       -271.2557851491631595
  //            Monomer A HF           //
    Molecular point group: c1
  Multiplicity = 1
  Basis Set: JUN-CC-PVTZ
    Blend: JUN-CC-PVTZ
  Basis Set: (JUN-CC-PVTZ AUX)
    Blend: JUN-CC-PVTZ-JKFIT
  @DF-RHF Final Energy:  -193.19153579295227
    Total Energy =                       -193.1915357929522656
  //            Monomer B HF           //
    Molecular point group: c1

    Geometry (in Angstrom), charge = 0, multiplicity = 1:

       Center              X                  Y                   Z               Mass
    ------------   -----------------  -----------------  -----------------  -----------------
      Gh(C)          -1.391872877393    -0.409345544235     0.723341167957    12.000000000000
      Gh(C)          -0.929802877393     0.997778455765     0.379122167957    12.000000000000
      Gh(H)          -0.516289877393    -1.061598544235     0.788389167957     1.007825032230
      Gh(H)          -1.844257877393    -0.389593544235     1.718576167957     1.007825032230
      Gh(O)          -0.265341877393     1.065574455765    -0.878976832043    15.994914619570
      Gh(H)          -1.791638877393     1.660810455765     0.292353167957     1.007825032230
      Gh(H)          -0.287548877393     1.391122455765     1.173955167957     1.007825032230
      Gh(H)           0.584836122607     0.619607455765    -0.771528832043     1.007825032230
      Gh(C)          -2.379455877393    -0.959915544235    -0.296745832043    12.000000000000
      Gh(H)          -2.679015877393    -1.977987544235    -0.050842832043     1.007825032230
      Gh(H)          -3.278608877393    -0.343268544235    -0.330192832043     1.007825032230
      Gh(H)          -1.938900877393    -0.960633544235    -1.291989832043     1.007825032230
         C            2.590808122607    -0.816900544235    -0.428341832043    12.000000000000
         H            2.094494122607    -1.777363544235    -0.405105832043     1.007825032230
         H            3.099451122607    -0.542360544235    -1.342171832043     1.007825032230
         C            2.581495122607    -0.004433544235     0.631453167957    12.000000000000
         H            3.080755122607     0.954354455765     0.609167167957     1.007825032230
         H            2.077733122607    -0.281864544235     1.547439167957     1.007825032230

  Charge       = 0
  Multiplicity = 1
  Basis Set: JUN-CC-PVTZ
    Blend: JUN-CC-PVTZ
  Basis Set: (JUN-CC-PVTZ AUX)
    Blend: JUN-CC-PVTZ-JKFIT

    Orbital Energies [Eh]
    ---------------------

    Doubly Occupied:

       1A    -11.231887     2A    -11.230194     3A     -1.033738
       4A     -0.793558     5A     -0.644544     6A     -0.587170
       7A     -0.508988     8A     -0.376463

  @DF-RHF Final Energy:   -78.06434372781966

   => Energetics <=

    Nuclear Repulsion Energy =             33.3753329838340207
    One-Electron Energy =                -170.0662659210945549
    Two-Electron Energy =                  58.6265892094408656
    Total Energy =                        -78.0643437278196615

  Dipole Moment: [D]
     X:     0.0066      Y:    -0.0028      Z:     0.0017     Total:     0.0074

    SAPT Results
  --------------------------------------------------------------------------------------------------------
    Electrostatics                 -7.08419696 [mEh]      -4.44540071 [kcal/mol]     -18.59955656 [kJ/mol]
      Elst10,r                     -7.08419696 [mEh]      -4.44540071 [kcal/mol]     -18.59955656 [kJ/mol]

    Exchange                        9.49170111 [mEh]       5.95613237 [kcal/mol]      24.92045784 [kJ/mol]
      Exch10                        9.49170111 [mEh]       5.95613237 [kcal/mol]      24.92045784 [kJ/mol]
      Exch10(S^2)                   9.41874635 [mEh]       5.91035256 [kcal/mol]      24.72891513 [kJ/mol]

    Induction                      -2.31313254 [mEh]      -1.45151258 [kcal/mol]      -6.07312865 [kJ/mol]
      Ind20,r                      -4.81618735 [mEh]      -3.02220319 [kcal/mol]     -12.64489815 [kJ/mol]
      Exch-Ind20,r                  3.59966261 [mEh]       2.25882239 [kcal/mol]       9.45091288 [kJ/mol]
      delta HF,r (2)               -1.09660780 [mEh]      -0.68813178 [kcal/mol]      -2.87914337 [kJ/mol]

    Dispersion                     -5.74797514 [mEh]      -3.60690886 [kcal/mol]     -15.09130665 [kJ/mol]
      Disp20                       -6.72193022 [mEh]      -4.21807490 [kcal/mol]     -17.64842536 [kJ/mol]
      Exch-Disp20                   0.97395508 [mEh]       0.61116604 [kcal/mol]       2.55711871 [kJ/mol]
      Disp20 (SS)                  -3.36096511 [mEh]      -2.10903745 [kcal/mol]      -8.82421268 [kJ/mol]
      Disp20 (OS)                  -3.36096511 [mEh]      -2.10903745 [kcal/mol]      -8.82421268 [kJ/mol]
      Exch-Disp20 (SS)              0.63319144 [mEh]       0.39733363 [kcal/mol]       1.66244391 [kJ/mol]
      Exch-Disp20 (OS)              0.34076364 [mEh]       0.21383241 [kcal/mol]       0.89467480 [kJ/mol]

  Total HF                          0.09437161 [mEh]       0.05921908 [kcal/mol]       0.24777262 [kJ/mol]
  Total SAPT0                      -5.65360353 [mEh]      -3.54768978 [kcal/mol]     -14.84353403 [kJ/mol]

  Special recipe for scaled SAPT0 (see Manual):
    Electrostatics sSAPT0          -7.08419696 [mEh]      -4.44540071 [kcal/mol]     -18.59955656 [kJ/mol]
    Exchange sSAPT0                 9.49170111 [mEh]       5.95613237 [kcal/mol]      24.92045784 [kJ/mol]
    Induction sSAPT0               -2.22883728 [mEh]      -1.39861651 [kcal/mol]      -5.85181146 [kJ/mol]
    Dispersion sSAPT0              -5.72516750 [mEh]      -3.59259685 [kcal/mol]     -15.03142521 [kJ/mol]
  Total sSAPT0                     -5.54650063 [mEh]      -3.48048169 [kcal/mol]     -14.56233540 [kJ/mol]
  --------------------------------------------------------------------------------------------------------

*** Psi4 exiting successfully. Buy a developer a beer!
