                               Psi4 1.3.2 release

  ==> Input File <==

--------------------------------------------------------------------------
# Any line starting with the # character is a comment line
#! Sample  computation

memory 22 gb

molecule Dimer {
0 1
 C  1.278340   -0.507233    0.920830
 C  0.764071   -1.571942   -0.036755
 H  0.427487   -0.037552    1.426434
 H  1.848504   -1.027407    1.696480
 O -0.129719   -1.081575   -1.032244
 H  1.600171   -2.007374   -0.585795
 H  0.289736   -2.377302    0.534357
 H -0.889110   -0.695765   -0.576058
 C  2.160055    0.567823    0.286090
 H  2.700226    1.086075    1.081756
 H  2.918774    0.080896   -0.333109
 C  1.401110    1.598141   -0.545420
 H  0.634243    2.084861    0.060751
 H  2.074995    2.373299   -0.910886
 H  0.911245    1.132371   -1.396783

 --
0 1
 C   -2.460727    1.032856    0.248434
 H   -2.227110    1.598643   -0.643061
 H   -2.094476    1.417495    1.190455
 C   -3.176181   -0.093441    0.190359
 H   -3.410599   -0.656755    1.082989
 H   -3.546348   -0.476104   -0.750811

units angstrom

no_reorient
symmetry c1
}

set globals{
  basis jun-cc-pvtz
}

energy('sapt0')

--------------------------------------------------------------------------

  //              Dimer HF             //
    Molecular point group: c1
  Charge       = 0
  Multiplicity = 1
  Basis Set: JUN-CC-PVTZ
    Blend: JUN-CC-PVTZ
  Basis Set: (JUN-CC-PVTZ AUX)
    Blend: JUN-CC-PVTZ-JKFIT
  @DF-RHF Final Energy:  -310.30046615514442
    Total Energy =                       -310.3004661551444201
  //            Monomer A HF           //
    Molecular point group: c1
  Multiplicity = 1
  Basis Set: JUN-CC-PVTZ
    Blend: JUN-CC-PVTZ
  Basis Set: (JUN-CC-PVTZ AUX)
    Blend: JUN-CC-PVTZ-JKFIT
  @DF-RHF Final Energy:  -232.23612055390629
    Total Energy =                       -232.2361205539062894
  //            Monomer B HF           //
    Molecular point group: c1

    Geometry (in Angstrom), charge = 0, multiplicity = 1:

       Center              X                  Y                   Z               Mass
    ------------   -----------------  -----------------  -----------------  -----------------
      Gh(C)           1.290361070665    -0.483038716810     0.939015240563    12.000000000000
      Gh(C)           0.776092070665    -1.547747716810    -0.018569759437    12.000000000000
      Gh(H)           0.439508070665    -0.013357716810     1.444619240563     1.007825032230
      Gh(H)           1.860525070665    -1.003212716810     1.714665240563     1.007825032230
      Gh(O)          -0.117697929335    -1.057380716810    -1.014058759437    15.994914619570
      Gh(H)           1.612192070665    -1.983179716810    -0.567609759437     1.007825032230
      Gh(H)           0.301757070665    -2.353107716810     0.552542240563     1.007825032230
      Gh(H)          -0.877088929335    -0.671570716810    -0.557872759437     1.007825032230
      Gh(C)           2.172076070665     0.592017283190     0.304275240563    12.000000000000
      Gh(H)           2.712247070665     1.110269283190     1.099941240563     1.007825032230
      Gh(H)           2.930795070665     0.105090283190    -0.314923759437     1.007825032230
      Gh(C)           1.413131070665     1.622335283190    -0.527234759437    12.000000000000
      Gh(H)           0.646264070665     2.109055283190     0.078936240563     1.007825032230
      Gh(H)           2.087016070665     2.397493283190    -0.892700759437     1.007825032230
      Gh(H)           0.923266070665     1.156565283190    -1.378597759437     1.007825032230
         C           -2.448705929335     1.057050283190     0.266619240563    12.000000000000
         H           -2.215088929335     1.622837283190    -0.624875759437     1.007825032230
         H           -2.082454929335     1.441689283190     1.208640240563     1.007825032230
         C           -3.164159929335    -0.069246716810     0.208544240563    12.000000000000
         H           -3.398577929335    -0.632560716810     1.101174240563     1.007825032230
         H           -3.534326929335    -0.451909716810    -0.732625759437     1.007825032230

  Charge       = 0
  Multiplicity = 1
  Basis Set: JUN-CC-PVTZ
    Blend: JUN-CC-PVTZ
  Basis Set: (JUN-CC-PVTZ AUX)
    Blend: JUN-CC-PVTZ-JKFIT

    Orbital Energies [Eh]
    ---------------------

    Doubly Occupied:

       1A    -11.231924     2A    -11.230233     3A     -1.033681
       4A     -0.793617     5A     -0.644486     6A     -0.587204
       7A     -0.508995     8A     -0.376424

  @DF-RHF Final Energy:   -78.06434532316108

   => Energetics <=

    Nuclear Repulsion Energy =             33.3728770349309229
    One-Electron Energy =                -170.0613140625156916
    Two-Electron Energy =                  58.6240917044236838
    Total Energy =                        -78.0643453231610920

  Dipole Moment: [D]
     X:    -0.0041      Y:     0.0022      Z:     0.0012     Total:     0.0048

    SAPT Results
  --------------------------------------------------------------------------------------------------------
    Electrostatics                 -7.17907536 [mEh]      -4.50493780 [kcal/mol]     -18.84865976 [kJ/mol]
      Elst10,r                     -7.17907536 [mEh]      -4.50493780 [kcal/mol]     -18.84865976 [kJ/mol]

    Exchange                        9.58807410 [mEh]       6.01660734 [kcal/mol]      25.17348509 [kJ/mol]
      Exch10                        9.58807410 [mEh]       6.01660734 [kcal/mol]      25.17348509 [kJ/mol]
      Exch10(S^2)                   9.51502468 [mEh]       5.97076813 [kcal/mol]      24.98169384 [kJ/mol]

    Induction                      -2.40927682 [mEh]      -1.51184403 [kcal/mol]      -6.32555542 [kJ/mol]
      Ind20,r                      -4.60135710 [mEh]      -2.88739518 [kcal/mol]     -12.08086141 [kJ/mol]
      Exch-Ind20,r                  3.33697581 [mEh]       2.09398394 [kcal/mol]       8.76122879 [kJ/mol]
      delta HF,r (2)               -1.14489553 [mEh]      -0.71843279 [kcal/mol]      -3.00592280 [kJ/mol]

    Dispersion                     -5.92131014 [mEh]      -3.71567821 [kcal/mol]     -15.54639764 [kJ/mol]
      Disp20                       -6.87506228 [mEh]      -4.31416672 [kcal/mol]     -18.05047354 [kJ/mol]
      Exch-Disp20                   0.95375214 [mEh]       0.59848850 [kcal/mol]       2.50407590 [kJ/mol]
      Disp20 (SS)                  -3.43753114 [mEh]      -2.15708336 [kcal/mol]      -9.02523677 [kJ/mol]
      Disp20 (OS)                  -3.43753114 [mEh]      -2.15708336 [kcal/mol]      -9.02523677 [kJ/mol]
      Exch-Disp20 (SS)              0.62486922 [mEh]       0.39211136 [kcal/mol]       1.64059392 [kJ/mol]
      Exch-Disp20 (OS)              0.32888292 [mEh]       0.20637715 [kcal/mol]       0.86348198 [kJ/mol]

  Total HF                         -0.00027808 [mEh]      -0.00017450 [kcal/mol]      -0.00073009 [kJ/mol]
  Total SAPT0                      -5.92158822 [mEh]      -3.71585271 [kcal/mol]     -15.54712773 [kJ/mol]

  Special recipe for scaled SAPT0 (see Manual):
    Electrostatics sSAPT0          -7.17907536 [mEh]      -4.50493780 [kcal/mol]     -18.84865976 [kJ/mol]
    Exchange sSAPT0                 9.58807410 [mEh]       6.01660734 [kcal/mol]      25.17348509 [kJ/mol]
    Induction sSAPT0               -2.33182865 [mEh]      -1.46324457 [kcal/mol]      -6.12221529 [kJ/mol]
    Dispersion sSAPT0              -5.89917443 [mEh]      -3.70178784 [kcal/mol]     -15.48828032 [kJ/mol]
  Total sSAPT0                     -5.82200433 [mEh]      -3.65336288 [kcal/mol]     -15.28567027 [kJ/mol]
  --------------------------------------------------------------------------------------------------------

*** Psi4 exiting successfully. Buy a developer a beer!
