                               Psi4 1.3.2 release

  ==> Input File <==

--------------------------------------------------------------------------
# Any line starting with the # character is a comment line
#! Sample  computation

memory 22 gb

molecule Dimer {
0 1
 C  -2.254932   -0.839252    0.798424
 C  -2.871448    0.315641    0.024386
 H  -1.340450   -0.487632    1.284972
 H  -2.943333   -1.125738    1.598052
 O  -2.020360    0.800002   -1.009853
 H  -3.781468   -0.017345   -0.476614
 H  -3.145019    1.125475    0.708054
 H  -1.257177    1.215395   -0.585184
 C  -1.951546   -2.036120   -0.092963
 H  -1.468313   -2.837417    0.465513
 H  -2.871049   -2.434351   -0.524226
 H  -1.299743   -1.745099   -0.915261

 --
0 1
 C   0.665397    2.527061    0.000187
 C   0.942427    1.349840    0.574307
 C   1.460459    0.149290   -0.148849
 C   2.857069   -0.250558    0.330951
 C   3.361394   -1.503344   -0.373617
 H   0.790799    2.669357   -1.066469
 H   0.315751    3.369434    0.580930
 H   0.812823    1.250836    1.649127
 H   0.782650   -0.695946    0.007934
 H   1.480031    0.346555   -1.223847
 H   3.543170    0.581483    0.158419
 H   2.831180   -0.416049    1.411032
 H   2.693532   -2.345583   -0.189131
 H   3.409581   -1.347331   -1.451797
 H   4.356986   -1.781413   -0.029639

units angstrom

no_reorient
symmetry c1
}

set globals{
  basis jun-cc-pvtz
}

energy('sapt0')

--------------------------------------------------------------------------

  //              Dimer HF             //
    Molecular point group: c1
  Charge       = 0
  Multiplicity = 1
  Basis Set: JUN-CC-PVTZ
    Blend: JUN-CC-PVTZ
  Basis Set: (JUN-CC-PVTZ AUX)
    Blend: JUN-CC-PVTZ-JKFIT
  @DF-RHF Final Energy:  -388.40313704128988
    Total Energy =                       -388.4031370412899378
  //            Monomer A HF           //
    Molecular point group: c1
  Multiplicity = 1
  Basis Set: JUN-CC-PVTZ
    Blend: JUN-CC-PVTZ
  Basis Set: (JUN-CC-PVTZ AUX)
    Blend: JUN-CC-PVTZ-JKFIT
  @DF-RHF Final Energy:  -193.19157419358467
    Total Energy =                       -193.1915741935846711
  //            Monomer B HF           //
    Molecular point group: c1

    Geometry (in Angstrom), charge = 0, multiplicity = 1:

       Center              X                  Y                   Z               Mass
    ------------   -----------------  -----------------  -----------------  -----------------
      Gh(C)          -2.232824901033    -0.874866389059     0.809072616638    12.000000000000
      Gh(C)          -2.849340901033     0.280026610941     0.035034616638    12.000000000000
      Gh(H)          -1.318342901033    -0.523246389059     1.295620616638     1.007825032230
      Gh(H)          -2.921225901033    -1.161352389059     1.608700616638     1.007825032230
      Gh(O)          -1.998252901033     0.764387610941    -0.999204383362    15.994914619570
      Gh(H)          -3.759360901033    -0.052959389059    -0.465965383362     1.007825032230
      Gh(H)          -3.122911901033     1.089860610941     0.718702616638     1.007825032230
      Gh(H)          -1.235069901033     1.179780610941    -0.574535383362     1.007825032230
      Gh(C)          -1.929438901033    -2.071734389059    -0.082314383362    12.000000000000
      Gh(H)          -1.446205901033    -2.873031389059     0.476161616638     1.007825032230
      Gh(H)          -2.848941901033    -2.469965389059    -0.513577383362     1.007825032230
      Gh(H)          -1.277635901033    -1.780713389059    -0.904612383362     1.007825032230
         C            0.687504098967     2.491446610941     0.010835616638    12.000000000000
         C            0.964534098967     1.314225610941     0.584955616638    12.000000000000
         C            1.482566098967     0.113675610941    -0.138200383362    12.000000000000
         C            2.879176098967    -0.286172389059     0.341599616638    12.000000000000
         C            3.383501098967    -1.538958389059    -0.362968383362    12.000000000000
         H            0.812906098967     2.633742610941    -1.055820383362     1.007825032230
         H            0.337858098967     3.333819610941     0.591578616638     1.007825032230
         H            0.834930098967     1.215221610941     1.659775616638     1.007825032230
         H            0.804757098967    -0.731560389059     0.018582616638     1.007825032230
         H            1.502138098967     0.310940610941    -1.213198383362     1.007825032230
         H            3.565277098967     0.545868610941     0.169067616638     1.007825032230
         H            2.853287098967    -0.451663389059     1.421680616638     1.007825032230
         H            2.715639098967    -2.381197389059    -0.178482383362     1.007825032230
         H            3.431688098967    -1.382945389059    -1.441148383362     1.007825032230
         H            4.379093098967    -1.817027389059    -0.018990383362     1.007825032230

  Charge       = 0
  Multiplicity = 1
  Basis Set: JUN-CC-PVTZ
    Blend: JUN-CC-PVTZ
  Basis Set: (JUN-CC-PVTZ AUX)
    Blend: JUN-CC-PVTZ-JKFIT

    Orbital Energies [Eh]
    ---------------------

    Doubly Occupied:

       1A    -11.231192     2A    -11.222083     3A    -11.219573
       4A    -11.217532     5A    -11.211437     6A     -1.089521
       7A     -1.021623     8A     -0.922522     9A     -0.812072
      10A     -0.756658    11A     -0.651262    12A     -0.616691
      13A     -0.589008    14A     -0.567418    15A     -0.538037
      16A     -0.510422    17A     -0.484021    18A     -0.472899
      19A     -0.470377    20A     -0.355505

  @DF-RHF Final Energy:  -195.21226572100912

   => Energetics <=

    Nuclear Repulsion Energy =            170.5383615384370444
    One-Electron Energy =                -599.5815496130503561
    Two-Electron Energy =                 233.8309223536042225
    Total Energy =                       -195.2122657210091177

  Dipole Moment: [D]
     X:     0.2377      Y:    -0.3929      Z:     0.0518     Total:     0.4621

    SAPT Results
  --------------------------------------------------------------------------------------------------------
    Electrostatics                 -8.28743946 [mEh]      -5.20044677 [kcal/mol]     -21.75866930 [kJ/mol]
      Elst10,r                     -8.28743946 [mEh]      -5.20044677 [kcal/mol]     -21.75866930 [kJ/mol]

    Exchange                       11.95031555 [mEh]       7.49893622 [kcal/mol]      31.37554915 [kJ/mol]
      Exch10                       11.95031555 [mEh]       7.49893622 [kcal/mol]      31.37554915 [kJ/mol]
      Exch10(S^2)                  11.87191893 [mEh]       7.44974160 [kcal/mol]      31.16971885 [kJ/mol]

    Induction                      -2.96000278 [mEh]      -1.85742979 [kcal/mol]      -7.77148624 [kJ/mol]
      Ind20,r                      -5.48790018 [mEh]      -3.44370935 [kcal/mol]     -14.40847993 [kJ/mol]
      Exch-Ind20,r                  3.93552929 [mEh]       2.46958191 [kcal/mol]      10.33273072 [kJ/mol]
      delta HF,r (2)               -1.40763189 [mEh]      -0.88330235 [kcal/mol]      -3.69573702 [kJ/mol]

    Dispersion                     -8.51299979 [mEh]      -5.34198802 [kcal/mol]     -22.35087786 [kJ/mol]
      Disp20                       -9.73395744 [mEh]      -6.10815051 [kcal/mol]     -25.55650175 [kJ/mol]
      Exch-Disp20                   1.22095766 [mEh]       0.76616250 [kcal/mol]       3.20562389 [kJ/mol]
      Disp20 (SS)                  -4.86697872 [mEh]      -3.05407526 [kcal/mol]     -12.77825087 [kJ/mol]
      Disp20 (OS)                  -4.86697872 [mEh]      -3.05407526 [kcal/mol]     -12.77825087 [kJ/mol]
      Exch-Disp20 (SS)              0.79684296 [mEh]       0.50002650 [kcal/mol]       2.09211090 [kJ/mol]
      Exch-Disp20 (OS)              0.42411470 [mEh]       0.26613599 [kcal/mol]       1.11351299 [kJ/mol]

  Total HF                          0.70287330 [mEh]       0.44105966 [kcal/mol]       1.84539361 [kJ/mol]
  Total SAPT0                      -7.81012648 [mEh]      -4.90092836 [kcal/mol]     -20.50548425 [kJ/mol]

  Special recipe for scaled SAPT0 (see Manual):
    Electrostatics sSAPT0          -8.28743946 [mEh]      -5.20044677 [kcal/mol]     -21.75866930 [kJ/mol]
    Exchange sSAPT0                11.95031555 [mEh]       7.49893622 [kcal/mol]      31.37554915 [kJ/mol]
    Induction sSAPT0               -2.88152160 [mEh]      -1.80818210 [kcal/mol]      -7.56543392 [kJ/mol]
    Dispersion sSAPT0              -8.48865180 [mEh]      -5.32670943 [kcal/mol]     -22.28695224 [kJ/mol]
  Total sSAPT0                     -7.70729732 [mEh]      -4.83640208 [kcal/mol]     -20.23550631 [kJ/mol]
  --------------------------------------------------------------------------------------------------------

*** Psi4 exiting successfully. Buy a developer a beer!
