                               Psi4 1.3.2 release

  ==> Input File <==

--------------------------------------------------------------------------
# Any line starting with the # character is a comment line
#! Sample  computation

memory 22 gb

molecule Dimer {
0 1
 C  2.744328    0.260947   -0.279377
 C  2.308696    0.670127    1.119810
 H  2.195350    0.855115   -1.017638
 H  3.796699    0.544275   -0.377605
 O  0.920338    0.481705    1.380619
 H  2.827909    0.057179    1.858037
 H  2.590528    1.712842    1.300604
 H  0.424342    1.064634    0.788124
 C  2.592650   -1.226828   -0.596999
 H  3.212043   -1.460725   -1.465880
 H  2.998706   -1.808762    0.235270
 C  1.159718   -1.667848   -0.882487
 H  0.742686   -1.089324   -1.709612
 H  1.126188   -2.720363   -1.165556
 H  0.523183   -1.520768   -0.013308

 --
0 1
 C   -0.701644    2.290729   -0.945112
 C   -1.747575    1.734475   -0.321313
 C   -2.266707    0.358382   -0.587199
 C   -2.357295   -0.491518    0.681677
 C   -2.856606   -1.898549    0.380195
 H   -0.168300    1.753726   -1.720289
 H   -0.373923    3.294816   -0.711996
 H   -2.262800    2.307859    0.444957
 H   -3.266196    0.430096   -1.029270
 H   -1.627215   -0.138380   -1.321550
 H   -1.376372   -0.536583    1.158245
 H   -3.029421   -0.001358    1.390808
 H   -3.842069   -1.871326   -0.087251
 H   -2.176635   -2.408709   -0.303479
 H   -2.930799   -2.497385    1.287275

units angstrom

no_reorient
symmetry c1
}

set globals{
  basis jun-cc-pvtz
}

energy('sapt0')

--------------------------------------------------------------------------

  //              Dimer HF             //
    Molecular point group: c1
  Charge       = 0
  Multiplicity = 1
  Basis Set: JUN-CC-PVTZ
    Blend: JUN-CC-PVTZ
  Basis Set: (JUN-CC-PVTZ AUX)
    Blend: JUN-CC-PVTZ-JKFIT
  @DF-RHF Final Energy:  -427.44680132534234
    Total Energy =                       -427.4468013253423351
  //            Monomer A HF           //
    Molecular point group: c1
  Multiplicity = 1
  Basis Set: JUN-CC-PVTZ
    Blend: JUN-CC-PVTZ
  Basis Set: (JUN-CC-PVTZ AUX)
    Blend: JUN-CC-PVTZ-JKFIT
  @DF-RHF Final Energy:  -232.23611344913900
    Total Energy =                       -232.2361134491389976
  //            Monomer B HF           //
    Molecular point group: c1

    Geometry (in Angstrom), charge = 0, multiplicity = 1:

       Center              X                  Y                   Z               Mass
    ------------   -----------------  -----------------  -----------------  -----------------
      Gh(C)           2.740119988868     0.233204408079    -0.296261042043    12.000000000000
      Gh(C)           2.304487988868     0.642384408079     1.102925957957    12.000000000000
      Gh(H)           2.191141988868     0.827372408079    -1.034522042043     1.007825032230
      Gh(H)           3.792490988868     0.516532408079    -0.394489042043     1.007825032230
      Gh(O)           0.916129988868     0.453962408079     1.363734957957    15.994914619570
      Gh(H)           2.823700988868     0.029436408079     1.841152957957     1.007825032230
      Gh(H)           2.586319988868     1.685099408079     1.283719957957     1.007825032230
      Gh(H)           0.420133988868     1.036891408079     0.771239957957     1.007825032230
      Gh(C)           2.588441988868    -1.254570591921    -0.613883042043    12.000000000000
      Gh(H)           3.207834988868    -1.488467591921    -1.482764042043     1.007825032230
      Gh(H)           2.994497988868    -1.836504591921     0.218385957957     1.007825032230
      Gh(C)           1.155509988868    -1.695590591921    -0.899371042043    12.000000000000
      Gh(H)           0.738477988868    -1.117066591921    -1.726496042043     1.007825032230
      Gh(H)           1.121979988868    -2.748105591921    -1.182440042043     1.007825032230
      Gh(H)           0.518974988868    -1.548510591921    -0.030192042043     1.007825032230
         C           -0.705852011132     2.262986408079    -0.961996042043    12.000000000000
         C           -1.751783011132     1.706732408079    -0.338197042043    12.000000000000
         C           -2.270915011132     0.330639408079    -0.604083042043    12.000000000000
         C           -2.361503011132    -0.519260591921     0.664792957957    12.000000000000
         C           -2.860814011132    -1.926291591921     0.363310957957    12.000000000000
         H           -0.172508011132     1.725983408079    -1.737173042043     1.007825032230
         H           -0.378131011132     3.267073408079    -0.728880042043     1.007825032230
         H           -2.267008011132     2.280116408079     0.428072957957     1.007825032230
         H           -3.270404011132     0.402353408079    -1.046154042043     1.007825032230
         H           -1.631423011132    -0.166122591921    -1.338434042043     1.007825032230
         H           -1.380580011132    -0.564325591921     1.141360957957     1.007825032230
         H           -3.033629011132    -0.029100591921     1.373923957957     1.007825032230
         H           -3.846277011132    -1.899068591921    -0.104135042043     1.007825032230
         H           -2.180843011132    -2.436451591921    -0.320363042043     1.007825032230
         H           -2.935007011132    -2.525127591921     1.270390957957     1.007825032230

  Charge       = 0
  Multiplicity = 1
  Basis Set: JUN-CC-PVTZ
    Blend: JUN-CC-PVTZ
  Basis Set: (JUN-CC-PVTZ AUX)
    Blend: JUN-CC-PVTZ-JKFIT

    Orbital Energies [Eh]
    ---------------------

    Doubly Occupied:

       1A    -11.231203     2A    -11.222197     3A    -11.219721
       4A    -11.217410     5A    -11.211686     6A     -1.089275
       7A     -1.022090     8A     -0.922386     9A     -0.811714
      10A     -0.757199    11A     -0.649741    12A     -0.617327
      13A     -0.590729    14A     -0.566819    15A     -0.537934
      16A     -0.510939    17A     -0.483084    18A     -0.474314
      19A     -0.469608    20A     -0.355332

  @DF-RHF Final Energy:  -195.21217259950942

   => Energetics <=

    Nuclear Repulsion Energy =            170.3133902023149631
    One-Electron Energy =                -599.1297068371097794
    Two-Electron Energy =                 233.6041440352854011
    Total Energy =                       -195.2121725995094152

  Dipole Moment: [D]
     X:    -0.2880      Y:    -0.3362      Z:     0.1544     Total:     0.4688

    SAPT Results
  --------------------------------------------------------------------------------------------------------
    Electrostatics                 -9.72884529 [mEh]      -6.10494259 [kcal/mol]     -25.54307978 [kJ/mol]
      Elst10,r                     -9.72884529 [mEh]      -6.10494259 [kcal/mol]     -25.54307978 [kJ/mol]

    Exchange                       14.62455327 [mEh]       9.17704572 [kcal/mol]      38.39675931 [kJ/mol]
      Exch10                       14.62455327 [mEh]       9.17704572 [kcal/mol]      38.39675931 [kJ/mol]
      Exch10(S^2)                  14.54610947 [mEh]       9.12782150 [kcal/mol]      38.19080514 [kJ/mol]

    Induction                      -3.41098467 [mEh]      -2.14042520 [kcal/mol]      -8.95553902 [kJ/mol]
      Ind20,r                      -6.47359429 [mEh]      -4.06224175 [kcal/mol]     -16.99641947 [kJ/mol]
      Exch-Ind20,r                  4.68451524 [mEh]       2.93957769 [kcal/mol]      12.29919307 [kJ/mol]
      delta HF,r (2)               -1.62190562 [mEh]      -1.01776114 [kcal/mol]      -4.25831262 [kJ/mol]

    Dispersion                    -10.76530140 [mEh]      -6.75532861 [kcal/mol]     -28.26429492 [kJ/mol]
      Disp20                      -12.27446508 [mEh]      -7.70234312 [kcal/mol]     -32.22660362 [kJ/mol]
      Exch-Disp20                   1.50916368 [mEh]       0.94701451 [kcal/mol]       3.96230870 [kJ/mol]
      Disp20 (SS)                  -6.13723254 [mEh]      -3.85117156 [kcal/mol]     -16.11330181 [kJ/mol]
      Disp20 (OS)                  -6.13723254 [mEh]      -3.85117156 [kcal/mol]     -16.11330181 [kJ/mol]
      Exch-Disp20 (SS)              0.98035638 [mEh]       0.61518291 [kcal/mol]       2.57392531 [kJ/mol]
      Exch-Disp20 (OS)              0.52880730 [mEh]       0.33183159 [kcal/mol]       1.38838338 [kJ/mol]

  Total HF                          1.48472331 [mEh]       0.93167794 [kcal/mol]       3.89814050 [kJ/mol]
  Total SAPT0                      -9.28057809 [mEh]      -5.82365067 [kcal/mol]     -24.36615442 [kJ/mol]

  Special recipe for scaled SAPT0 (see Manual):
    Electrostatics sSAPT0          -9.72884529 [mEh]      -6.10494259 [kcal/mol]     -25.54307978 [kJ/mol]
    Exchange sSAPT0                14.62455327 [mEh]       9.17704572 [kcal/mol]      38.39675931 [kJ/mol]
    Induction sSAPT0               -3.33478771 [mEh]      -2.09261088 [kcal/mol]      -8.75548394 [kJ/mol]
    Dispersion sSAPT0             -10.74075378 [mEh]      -6.73992475 [kcal/mol]     -28.19984517 [kJ/mol]
  Total sSAPT0                     -9.17983352 [mEh]      -5.76043250 [kcal/mol]     -24.10164958 [kJ/mol]
  --------------------------------------------------------------------------------------------------------

*** Psi4 exiting successfully. Buy a developer a beer!
