                               Psi4 1.3.2 release

  ==> Input File <==

--------------------------------------------------------------------------
# Any line starting with the # character is a comment line
#! Sample  computation

memory 22 gb

molecule Dimer {
0 1
 C  3.118867   -0.439850   -0.665950
 C  1.887749   -1.095786   -0.069298
 O  1.550623   -0.557081    1.204961
 H  2.945368    0.623014   -0.835083
 H  3.376228   -0.900583   -1.620657
 H  3.963964   -0.543748    0.012360
 H  1.039111   -1.010793   -0.757241
 H  2.067919   -2.157088    0.097282
 H  1.176609    0.321160    1.051532

 --
0 1
 C    0.321329    2.234929   -0.195344
 C   -0.834052    1.730308    0.254114
 C   -1.650284    0.700043   -0.457610
 C   -1.942395   -0.524156    0.412072
 C   -2.767683   -1.563459   -0.335381
 H    0.732471    1.918808   -1.146576
 H    0.865974    2.984179    0.362979
 H   -1.220164    2.079278    1.208292
 H   -2.603742    1.144388   -0.762420
 H   -1.136168    0.394326   -1.373338
 H   -1.001095   -0.960549    0.751226
 H   -2.476700   -0.201446    1.309321
 H   -3.720084   -1.143769   -0.662263
 H   -2.236924   -1.913457   -1.221813
 H   -2.978926   -2.429248    0.291095

units angstrom

no_reorient
symmetry c1
}

set globals{
  basis jun-cc-pvtz
}

energy('sapt0')

--------------------------------------------------------------------------

  //              Dimer HF             //
    Molecular point group: c1
  Charge       = 0
  Multiplicity = 1
  Basis Set: JUN-CC-PVTZ
    Blend: JUN-CC-PVTZ
  Basis Set: (JUN-CC-PVTZ AUX)
    Blend: JUN-CC-PVTZ-JKFIT
  @DF-RHF Final Energy:  -349.35531788463373
    Total Energy =                       -349.3553178846337346
  //            Monomer A HF           //
    Molecular point group: c1
  Multiplicity = 1
  Basis Set: JUN-CC-PVTZ
    Blend: JUN-CC-PVTZ
  Basis Set: (JUN-CC-PVTZ AUX)
    Blend: JUN-CC-PVTZ-JKFIT
  @DF-RHF Final Energy:  -154.14411566806817
    Total Energy =                       -154.1441156680681672
  //            Monomer B HF           //
    Molecular point group: c1

    Geometry (in Angstrom), charge = 0, multiplicity = 1:

       Center              X                  Y                   Z               Mass
    ------------   -----------------  -----------------  -----------------  -----------------
      Gh(C)           3.108628831895    -0.455216044912    -0.694053610224    12.000000000000
      Gh(C)           1.877510831895    -1.111152044912    -0.097401610224    12.000000000000
      Gh(O)           1.540384831895    -0.572447044912     1.176857389776    15.994914619570
      Gh(H)           2.935129831895     0.607647955088    -0.863186610224     1.007825032230
      Gh(H)           3.365989831895    -0.915949044912    -1.648760610224     1.007825032230
      Gh(H)           3.953725831895    -0.559114044912    -0.015743610224     1.007825032230
      Gh(H)           1.028872831895    -1.026159044912    -0.785344610224     1.007825032230
      Gh(H)           2.057680831895    -2.172454044912     0.069178389776     1.007825032230
      Gh(H)           1.166370831895     0.305793955088     1.023428389776     1.007825032230
         C            0.311090831895     2.219562955088    -0.223447610224    12.000000000000
         C           -0.844290168105     1.714941955088     0.226010389776    12.000000000000
         C           -1.660522168105     0.684676955088    -0.485713610224    12.000000000000
         C           -1.952633168105    -0.539522044912     0.383968389776    12.000000000000
         C           -2.777921168105    -1.578825044912    -0.363484610224    12.000000000000
         H            0.722232831895     1.903441955088    -1.174679610224     1.007825032230
         H            0.855735831895     2.968812955088     0.334875389776     1.007825032230
         H           -1.230402168105     2.063911955088     1.180188389776     1.007825032230
         H           -2.613980168105     1.129021955088    -0.790523610224     1.007825032230
         H           -1.146406168105     0.378959955088    -1.401441610224     1.007825032230
         H           -1.011333168105    -0.975915044912     0.723122389776     1.007825032230
         H           -2.486938168105    -0.216812044912     1.281217389776     1.007825032230
         H           -3.730322168105    -1.159135044912    -0.690366610224     1.007825032230
         H           -2.247162168105    -1.928823044912    -1.249916610224     1.007825032230
         H           -2.989164168105    -2.444614044912     0.262991389776     1.007825032230

  Charge       = 0
  Multiplicity = 1
  Basis Set: JUN-CC-PVTZ
    Blend: JUN-CC-PVTZ
  Basis Set: (JUN-CC-PVTZ AUX)
    Blend: JUN-CC-PVTZ-JKFIT

    Orbital Energies [Eh]
    ---------------------

    Doubly Occupied:

       1A    -11.231187     2A    -11.222246     3A    -11.219742
       4A    -11.217426     5A    -11.211701     6A     -1.089203
       7A     -1.022100     8A     -0.922488     9A     -0.811925
      10A     -0.757156    11A     -0.649752    12A     -0.617046
      13A     -0.590580    14A     -0.566974    15A     -0.537986
      16A     -0.510846    17A     -0.483438    18A     -0.473865
      19A     -0.469733    20A     -0.355466

  @DF-RHF Final Energy:  -195.21222881055203

   => Energetics <=

    Nuclear Repulsion Energy =            170.2953214648296125
    One-Electron Energy =                -599.0933791909225192
    Two-Electron Energy =                 233.5858289155408727
    Total Energy =                       -195.2122288105520340

  Dipole Moment: [D]
     X:    -0.3590      Y:    -0.2957      Z:     0.0402     Total:     0.4668

    SAPT Results
  --------------------------------------------------------------------------------------------------------
    Electrostatics                 -8.99168998 [mEh]      -5.64237065 [kcal/mol]     -23.60767880 [kJ/mol]
      Elst10,r                     -8.99168998 [mEh]      -5.64237065 [kcal/mol]     -23.60767880 [kJ/mol]

    Exchange                       12.95473253 [mEh]       8.12921739 [kcal/mol]      34.01264556 [kJ/mol]
      Exch10                       12.95473253 [mEh]       8.12921739 [kcal/mol]      34.01264556 [kJ/mol]
      Exch10(S^2)                  12.88276663 [mEh]       8.08405811 [kcal/mol]      33.82369912 [kJ/mol]

    Induction                      -2.93644856 [mEh]      -1.84264929 [kcal/mol]      -7.70964462 [kJ/mol]
      Ind20,r                      -6.20505195 [mEh]      -3.89372888 [kcal/mol]     -16.29136164 [kJ/mol]
      Exch-Ind20,r                  4.64197470 [mEh]       2.91288310 [kcal/mol]      12.18750291 [kJ/mol]
      delta HF,r (2)               -1.37337131 [mEh]      -0.86180351 [kcal/mol]      -3.60578589 [kJ/mol]

    Dispersion                     -8.94648071 [mEh]      -5.61400140 [kcal/mol]     -23.48898186 [kJ/mol]
      Disp20                      -10.31647183 [mEh]      -6.47368381 [kcal/mol]     -27.08589305 [kJ/mol]
      Exch-Disp20                   1.36999112 [mEh]       0.85968241 [kcal/mol]       3.59691119 [kJ/mol]
      Disp20 (SS)                  -5.15823591 [mEh]      -3.23684190 [kcal/mol]     -13.54294652 [kJ/mol]
      Disp20 (OS)                  -5.15823591 [mEh]      -3.23684190 [kcal/mol]     -13.54294652 [kJ/mol]
      Exch-Disp20 (SS)              0.88539126 [mEh]       0.55559140 [kcal/mol]       2.32459442 [kJ/mol]
      Exch-Disp20 (OS)              0.48459986 [mEh]       0.30409100 [kcal/mol]       1.27231676 [kJ/mol]

  Total HF                          1.02659399 [mEh]       0.64419745 [kcal/mol]       2.69532214 [kJ/mol]
  Total SAPT0                      -7.91988672 [mEh]      -4.96980395 [kcal/mol]     -20.79365972 [kJ/mol]

  Special recipe for scaled SAPT0 (see Manual):
    Electrostatics sSAPT0          -8.99168998 [mEh]      -5.64237065 [kcal/mol]     -23.60767880 [kJ/mol]
    Exchange sSAPT0                12.95473253 [mEh]       8.12921739 [kcal/mol]      34.01264556 [kJ/mol]
    Induction sSAPT0               -2.85821997 [mEh]      -1.79356011 [kcal/mol]      -7.50425551 [kJ/mol]
    Dispersion sSAPT0              -8.92339302 [mEh]      -5.59951366 [kcal/mol]     -23.42836514 [kJ/mol]
  Total sSAPT0                     -7.81857045 [mEh]      -4.90622703 [kcal/mol]     -20.52765389 [kJ/mol]
  --------------------------------------------------------------------------------------------------------

*** Psi4 exiting successfully. Buy a developer a beer!
