                               Psi4 1.3.2 release

  ==> Input File <==

--------------------------------------------------------------------------
# Any line starting with the # character is a comment line
#! Sample  computation

memory 22 gb

molecule Dimer {
0 1
 C 2.406185    0.720762   -0.376505
 C 1.687176   -0.611107   -0.273153
 O 1.047062   -0.783538    0.987183
 H 1.698282    1.545788   -0.290929
 H 2.918120    0.808932   -1.335683
 H 3.139799    0.814711    0.422316
 H 0.962302   -0.715586   -1.087396
 H 2.395936   -1.433653   -0.357511
 H 0.314089   -0.154330    1.015578

 --
0 1
 C   -1.446019    1.421468    0.057536
 C   -1.989406    0.236261    0.356402
 C   -2.093000   -0.912845   -0.593467
 H   -1.397535    2.218516    0.786452
 H   -1.050158    1.618975   -0.931241
 H   -2.380187    0.081614    1.357332
 H   -3.129937   -1.233516   -0.700509
 H   -1.712125   -0.642818   -1.577685
 H   -1.524699   -1.767568   -0.223072

units angstrom

no_reorient
symmetry c1
}

set globals{
  basis jun-cc-pvtz
}

energy('sapt0')

--------------------------------------------------------------------------

  //              Dimer HF             //
    Molecular point group: c1
  Charge       = 0
  Multiplicity = 1
  Basis Set: JUN-CC-PVTZ
    Blend: JUN-CC-PVTZ
  Basis Set: (JUN-CC-PVTZ AUX)
    Blend: JUN-CC-PVTZ-JKFIT
  @DF-RHF Final Energy:  -271.26087834398658
    Total Energy =                       -271.2608783439865761
  //            Monomer A HF           //
    Molecular point group: c1
  Multiplicity = 1
  Basis Set: JUN-CC-PVTZ
    Blend: JUN-CC-PVTZ
  Basis Set: (JUN-CC-PVTZ AUX)
    Blend: JUN-CC-PVTZ-JKFIT
  @DF-RHF Final Energy:  -154.14416476349436
    Total Energy =                       -154.1441647634943592
  //            Monomer B HF           //
    Molecular point group: c1

    Geometry (in Angstrom), charge = 0, multiplicity = 1:

       Center              X                  Y                   Z               Mass
    ------------   -----------------  -----------------  -----------------  -----------------
      Gh(C)           2.408879820395     0.733569091805    -0.409363295703    12.000000000000
      Gh(C)           1.689870820395    -0.598299908195    -0.306011295703    12.000000000000
      Gh(O)           1.049756820395    -0.770730908195     0.954324704297    15.994914619570
      Gh(H)           1.700976820395     1.558595091805    -0.323787295703     1.007825032230
      Gh(H)           2.920814820395     0.821739091805    -1.368541295703     1.007825032230
      Gh(H)           3.142493820395     0.827518091805     0.389457704297     1.007825032230
      Gh(H)           0.964996820395    -0.702778908195    -1.120254295703     1.007825032230
      Gh(H)           2.398630820395    -1.420845908195    -0.390369295703     1.007825032230
      Gh(H)           0.316783820395    -0.141522908195     0.982719704297     1.007825032230
         C           -1.443324179605     1.434275091805     0.024677704297    12.000000000000
         C           -1.986711179605     0.249068091805     0.323543704297    12.000000000000
         C           -2.090305179605    -0.900037908195    -0.626325295703    12.000000000000
         H           -1.394840179605     2.231323091805     0.753593704297     1.007825032230
         H           -1.047463179605     1.631782091805    -0.964099295703     1.007825032230
         H           -2.377492179605     0.094421091805     1.324473704297     1.007825032230
         H           -3.127242179605    -1.220708908195    -0.733367295703     1.007825032230
         H           -1.709430179605    -0.630010908195    -1.610543295703     1.007825032230
         H           -1.522004179605    -1.754760908195    -0.255930295703     1.007825032230

  Charge       = 0
  Multiplicity = 1
  Basis Set: JUN-CC-PVTZ
    Blend: JUN-CC-PVTZ
  Basis Set: (JUN-CC-PVTZ AUX)
    Blend: JUN-CC-PVTZ-JKFIT

    Orbital Energies [Eh]
    ---------------------

    Doubly Occupied:

       1A    -11.234651     2A    -11.220871     3A    -11.217778
       4A     -1.064559     5A     -0.932885     6A     -0.757955
       7A     -0.639526     8A     -0.582593     9A     -0.569459
      10A     -0.523078    11A     -0.493039    12A     -0.357508

  @DF-RHF Final Energy:  -117.11682563080596

   => Energetics <=

    Nuclear Repulsion Energy =             70.8384779807697385
    One-Electron Energy =                -296.7228037030739642
    Two-Electron Energy =                 108.7675000914982633
    Total Energy =                       -117.1168256308059625

  Dipole Moment: [D]
     X:    -0.1336      Y:    -0.4044      Z:    -0.0518     Total:     0.4290

    SAPT Results
  --------------------------------------------------------------------------------------------------------
    Electrostatics                 -8.01884167 [mEh]      -5.03189912 [kcal/mol]     -21.05346590 [kJ/mol]
      Elst10,r                     -8.01884167 [mEh]      -5.03189912 [kcal/mol]     -21.05346590 [kJ/mol]

    Exchange                       10.67598538 [mEh]       6.69928197 [kcal/mol]      28.02979576 [kJ/mol]
      Exch10                       10.67598538 [mEh]       6.69928197 [kcal/mol]      28.02979576 [kJ/mol]
      Exch10(S^2)                  10.60849193 [mEh]       6.65692919 [kcal/mol]      27.85259173 [kJ/mol]

    Induction                      -2.54509340 [mEh]      -1.59707022 [kcal/mol]      -6.68214180 [kJ/mol]
      Ind20,r                      -5.16074511 [mEh]      -3.23841645 [kcal/mol]     -13.54953443 [kJ/mol]
      Exch-Ind20,r                  3.78076505 [mEh]       2.37246589 [kcal/mol]       9.92639727 [kJ/mol]
      delta HF,r (2)               -1.16511333 [mEh]      -0.73111965 [kcal/mol]      -3.05900463 [kJ/mol]

    Dispersion                     -7.24437637 [mEh]      -4.54591480 [kcal/mol]     -19.02010754 [kJ/mol]
      Disp20                       -8.33429760 [mEh]      -5.22985070 [kcal/mol]     -21.88169532 [kJ/mol]
      Exch-Disp20                   1.08992122 [mEh]       0.68393589 [kcal/mol]       2.86158778 [kJ/mol]
      Disp20 (SS)                  -4.16714880 [mEh]      -2.61492535 [kcal/mol]     -10.94084766 [kJ/mol]
      Disp20 (OS)                  -4.16714880 [mEh]      -2.61492535 [kcal/mol]     -10.94084766 [kJ/mol]
      Exch-Disp20 (SS)              0.70925493 [mEh]       0.44506419 [kcal/mol]       1.86214855 [kJ/mol]
      Exch-Disp20 (OS)              0.38066630 [mEh]       0.23887171 [kcal/mol]       0.99943923 [kJ/mol]

  Total HF                          0.11205031 [mEh]       0.07031263 [kcal/mol]       0.29418806 [kJ/mol]
  Total SAPT0                      -7.13232606 [mEh]      -4.47560217 [kcal/mol]     -18.72591949 [kJ/mol]

  Special recipe for scaled SAPT0 (see Manual):
    Electrostatics sSAPT0          -8.01884167 [mEh]      -5.03189912 [kcal/mol]     -21.05346590 [kJ/mol]
    Exchange sSAPT0                10.67598538 [mEh]       6.69928197 [kcal/mol]      28.02979576 [kJ/mol]
    Induction sSAPT0               -2.47247125 [mEh]      -1.55149914 [kcal/mol]      -6.49147238 [kJ/mol]
    Dispersion sSAPT0              -7.22344082 [mEh]      -4.53277755 [kcal/mol]     -18.96514125 [kJ/mol]
  Total sSAPT0                     -7.03876836 [mEh]      -4.41689383 [kcal/mol]     -18.48028377 [kJ/mol]
  --------------------------------------------------------------------------------------------------------

*** Psi4 exiting successfully. Buy a developer a beer!
