                               Psi4 1.3.2 release

  ==> Input File <==

--------------------------------------------------------------------------
# Any line starting with the # character is a comment line
#! Sample  computation

memory 22 gb

molecule Dimer {
0 1
 C -1.764102   -0.648685   -0.730383
 C -1.333549   -1.456006    0.485896
 H -0.901142   -0.513774   -1.391573
 H -2.484113   -1.259887   -1.282998
 O -0.238202   -0.890647    1.201417
 H -2.154515   -1.511388    1.202466
 H -1.095121   -2.479805    0.178464
 H  0.515642   -0.865786    0.595864
 C -2.397401    0.706866   -0.420948
 H -2.872157    1.081691   -1.330779
 H -3.201242    0.561331    0.306357
 C -1.422068    1.759770    0.097345
 H -0.604322    1.903288   -0.612109
 H -1.921855    2.720119    0.226237
 H -0.989678    1.460068    1.048834

 --
0 1
 C   2.542486   -1.025986   -0.734619
 C   2.262021    0.278242   -0.631112
 C   2.551079    1.115778    0.572474
 H   2.309892   -1.581248   -1.632740
 H   3.021023   -1.559708    0.077335
 H   1.786544    0.774351   -1.471601
 H   1.629761    1.536577    0.978150
 H   3.033718    0.528133    1.352111
 H   3.202391    1.951346    0.312726

units angstrom

no_reorient
symmetry c1
}

set globals{
  basis jun-cc-pvtz
}

energy('sapt0')

--------------------------------------------------------------------------

  //              Dimer HF             //
    Molecular point group: c1
  Charge       = 0
  Multiplicity = 1
  Basis Set: JUN-CC-PVTZ
    Blend: JUN-CC-PVTZ
  Basis Set: (JUN-CC-PVTZ AUX)
    Blend: JUN-CC-PVTZ-JKFIT
  @DF-RHF Final Energy:  -349.35260335921703
    Total Energy =                       -349.3526033592170279
  //            Monomer A HF           //
    Molecular point group: c1
  Multiplicity = 1
  Basis Set: JUN-CC-PVTZ
    Blend: JUN-CC-PVTZ
  Basis Set: (JUN-CC-PVTZ AUX)
    Blend: JUN-CC-PVTZ-JKFIT
  @DF-RHF Final Energy:  -232.23608108062439
    Total Energy =                       -232.2360810806243876
  //            Monomer B HF           //
    Molecular point group: c1

    Geometry (in Angstrom), charge = 0, multiplicity = 1:

       Center              X                  Y                   Z               Mass
    ------------   -----------------  -----------------  -----------------  -----------------
      Gh(C)          -1.770308701027    -0.625267140016    -0.742662085420    12.000000000000
      Gh(C)          -1.339755701027    -1.432588140016     0.473616914580    12.000000000000
      Gh(H)          -0.907348701027    -0.490356140016    -1.403852085420     1.007825032230
      Gh(H)          -2.490319701027    -1.236469140016    -1.295277085420     1.007825032230
      Gh(O)          -0.244408701027    -0.867229140016     1.189137914580    15.994914619570
      Gh(H)          -2.160721701027    -1.487970140016     1.190186914580     1.007825032230
      Gh(H)          -1.101327701027    -2.456387140016     0.166184914580     1.007825032230
      Gh(H)           0.509435298973    -0.842368140016     0.583584914580     1.007825032230
      Gh(C)          -2.403607701027     0.730283859984    -0.433227085420    12.000000000000
      Gh(H)          -2.878363701027     1.105108859984    -1.343058085420     1.007825032230
      Gh(H)          -3.207448701027     0.584748859984     0.294077914580     1.007825032230
      Gh(C)          -1.428274701027     1.783187859984     0.085065914580    12.000000000000
      Gh(H)          -0.610528701027     1.926705859984    -0.624388085420     1.007825032230
      Gh(H)          -1.928061701027     2.743536859984     0.213957914580     1.007825032230
      Gh(H)          -0.995884701027     1.483485859984     1.036554914580     1.007825032230
         C            2.536279298973    -1.002568140016    -0.746898085420    12.000000000000
         C            2.255814298973     0.301659859984    -0.643391085420    12.000000000000
         C            2.544872298973     1.139195859984     0.560194914580    12.000000000000
         H            2.303685298973    -1.557830140016    -1.645019085420     1.007825032230
         H            3.014816298973    -1.536290140016     0.065055914580     1.007825032230
         H            1.780337298973     0.797768859984    -1.483880085420     1.007825032230
         H            1.623554298973     1.559994859984     0.965870914580     1.007825032230
         H            3.027511298973     0.551550859984     1.339831914580     1.007825032230
         H            3.196184298973     1.974763859984     0.300446914580     1.007825032230

  Charge       = 0
  Multiplicity = 1
  Basis Set: JUN-CC-PVTZ
    Blend: JUN-CC-PVTZ
  Basis Set: (JUN-CC-PVTZ AUX)
    Blend: JUN-CC-PVTZ-JKFIT

    Orbital Energies [Eh]
    ---------------------

    Doubly Occupied:

       1A    -11.234751     2A    -11.220890     3A    -11.217846
       4A     -1.064448     5A     -0.932927     6A     -0.757973
       7A     -0.639449     8A     -0.582687     9A     -0.569329
      10A     -0.523108    11A     -0.493128    12A     -0.357429

  @DF-RHF Final Energy:  -117.11685306465337

   => Energetics <=

    Nuclear Repulsion Energy =             70.8280236935958953
    One-Electron Energy =                -296.7018209169546026
    Two-Electron Energy =                 108.7569441587053376
    Total Energy =                       -117.1168530646533696

  Dipole Moment: [D]
     X:    -0.0236      Y:     0.3929      Z:     0.1717     Total:     0.4294

    SAPT Results
  --------------------------------------------------------------------------------------------------------
    Electrostatics                 -8.47296116 [mEh]      -5.31686340 [kcal/mol]     -22.24575645 [kJ/mol]
      Elst10,r                     -8.47296116 [mEh]      -5.31686340 [kcal/mol]     -22.24575645 [kJ/mol]

    Exchange                       11.80791683 [mEh]       7.40957968 [kcal/mol]      31.00168137 [kJ/mol]
      Exch10                       11.80791683 [mEh]       7.40957968 [kcal/mol]      31.00168137 [kJ/mol]
      Exch10(S^2)                  11.72124666 [mEh]       7.35519332 [kcal/mol]      30.77412887 [kJ/mol]

    Induction                      -3.00416961 [mEh]      -1.88514489 [kcal/mol]      -7.88744624 [kJ/mol]
      Ind20,r                      -5.54396064 [mEh]      -3.47888783 [kcal/mol]     -14.55566666 [kJ/mol]
      Exch-Ind20,r                  3.91913858 [mEh]       2.45929659 [kcal/mol]      10.28969693 [kJ/mol]
      delta HF,r (2)               -1.37934755 [mEh]      -0.86555366 [kcal/mol]      -3.62147650 [kJ/mol]

    Dispersion                     -8.22833519 [mEh]      -5.16335828 [kcal/mol]     -21.60349106 [kJ/mol]
      Disp20                       -9.41520267 [mEh]      -5.90812887 [kcal/mol]     -24.71961121 [kJ/mol]
      Exch-Disp20                   1.18686748 [mEh]       0.74477059 [kcal/mol]       3.11612015 [kJ/mol]
      Disp20 (SS)                  -4.70760134 [mEh]      -2.95406444 [kcal/mol]     -12.35980560 [kJ/mol]
      Disp20 (OS)                  -4.70760134 [mEh]      -2.95406444 [kcal/mol]     -12.35980560 [kJ/mol]
      Exch-Disp20 (SS)              0.77805122 [mEh]       0.48823451 [kcal/mol]       2.04277319 [kJ/mol]
      Exch-Disp20 (OS)              0.40881627 [mEh]       0.25653608 [kcal/mol]       1.07334696 [kJ/mol]

  Total HF                          0.33078606 [mEh]       0.20757139 [kcal/mol]       0.86847868 [kJ/mol]
  Total SAPT0                      -7.89754913 [mEh]      -4.95578690 [kcal/mol]     -20.73501238 [kJ/mol]

  Special recipe for scaled SAPT0 (see Manual):
    Electrostatics sSAPT0          -8.47296116 [mEh]      -5.31686340 [kcal/mol]     -22.24575645 [kJ/mol]
    Exchange sSAPT0                11.80791683 [mEh]       7.40957968 [kcal/mol]      31.00168137 [kJ/mol]
    Induction sSAPT0               -2.91658757 [mEh]      -1.83018633 [kcal/mol]      -7.65749962 [kJ/mol]
    Dispersion sSAPT0              -8.20181194 [mEh]      -5.14671470 [kcal/mol]     -21.53385429 [kJ/mol]
  Total sSAPT0                     -7.78344384 [mEh]      -4.88418475 [kcal/mol]     -20.43542899 [kJ/mol]
  --------------------------------------------------------------------------------------------------------

*** Psi4 exiting successfully. Buy a developer a beer!
