                               Psi4 1.3.2 release

  ==> Input File <==

--------------------------------------------------------------------------
# Any line starting with the # character is a comment line
#! Sample  computation

memory 22 gb

molecule Dimer {
0 1
 C  1.649367    0.281980    0.776108
 C  1.633622   -1.112594    0.170276
 H  0.646554    0.515559    1.144662
 H  2.309357    0.272697    1.647669
 O  0.748133   -1.217855   -0.940480
 H  2.622086   -1.361399   -0.218180
 H  1.380276   -1.853679    0.935121
 H -0.149675   -1.094649   -0.602579
 C  2.102570    1.341236   -0.219626
 H  2.063815    2.339589    0.214964
 H  3.128437    1.152592   -0.538978
 H  1.472260    1.325858   -1.107322

 --
0 1
 C   -2.284493   -0.949455    0.610003
 C   -2.290318    0.001647   -0.330807
 C   -1.939547    1.434376   -0.090888
 H   -2.551173   -1.971211    0.377991
 H   -2.022221   -0.718078    1.635134
 H   -2.562665   -0.273065   -1.345064
 H   -2.763289    2.086857   -0.383272
 H   -1.713791    1.613379    0.959583
 H   -1.072244    1.725254   -0.686294

units angstrom

no_reorient
symmetry c1
}

set globals{
  basis jun-cc-pvtz
}

energy('sapt0')

--------------------------------------------------------------------------

  //              Dimer HF             //
    Molecular point group: c1
  Charge       = 0
  Multiplicity = 1
  Basis Set: JUN-CC-PVTZ
    Blend: JUN-CC-PVTZ
  Basis Set: (JUN-CC-PVTZ AUX)
    Blend: JUN-CC-PVTZ-JKFIT
  @DF-RHF Final Energy:  -310.30801123711746
    Total Energy =                       -310.3080112371174550
  //            Monomer A HF           //
    Molecular point group: c1
  Multiplicity = 1
  Basis Set: JUN-CC-PVTZ
    Blend: JUN-CC-PVTZ
  Basis Set: (JUN-CC-PVTZ AUX)
    Blend: JUN-CC-PVTZ-JKFIT
  @DF-RHF Final Energy:  -193.19154236817820
    Total Energy =                       -193.1915423681782045
  //            Monomer B HF           //
    Molecular point group: c1

    Geometry (in Angstrom), charge = 0, multiplicity = 1:

       Center              X                  Y                   Z               Mass
    ------------   -----------------  -----------------  -----------------  -----------------
      Gh(C)           1.657058862948     0.318453262325     0.795820738376    12.000000000000
      Gh(C)           1.641313862948    -1.076120737675     0.189988738376    12.000000000000
      Gh(H)           0.654245862948     0.552032262325     1.164374738376     1.007825032230
      Gh(H)           2.317048862948     0.309170262325     1.667381738376     1.007825032230
      Gh(O)           0.755824862948    -1.181381737675    -0.920767261624    15.994914619570
      Gh(H)           2.629777862948    -1.324925737675    -0.198467261624     1.007825032230
      Gh(H)           1.387967862948    -1.817205737675     0.954833738376     1.007825032230
      Gh(H)          -0.141983137052    -1.058175737675    -0.582866261624     1.007825032230
      Gh(C)           2.110261862948     1.377709262325    -0.199913261624    12.000000000000
      Gh(H)           2.071506862948     2.376062262325     0.234676738376     1.007825032230
      Gh(H)           3.136128862948     1.189065262325    -0.519265261624     1.007825032230
      Gh(H)           1.479951862948     1.362331262325    -1.087609261624     1.007825032230
         C           -2.276801137052    -0.912981737675     0.629715738376    12.000000000000
         C           -2.282626137052     0.038120262325    -0.311094261624    12.000000000000
         C           -1.931855137052     1.470849262325    -0.071175261624    12.000000000000
         H           -2.543481137052    -1.934737737675     0.397703738376     1.007825032230
         H           -2.014529137052    -0.681604737675     1.654846738376     1.007825032230
         H           -2.554973137052    -0.236591737675    -1.325351261624     1.007825032230
         H           -2.755597137052     2.123330262325    -0.363559261624     1.007825032230
         H           -1.706099137052     1.649852262325     0.979295738376     1.007825032230
         H           -1.064552137052     1.761727262325    -0.666581261624     1.007825032230

  Charge       = 0
  Multiplicity = 1
  Basis Set: JUN-CC-PVTZ
    Blend: JUN-CC-PVTZ
  Basis Set: (JUN-CC-PVTZ AUX)
    Blend: JUN-CC-PVTZ-JKFIT

    Orbital Energies [Eh]
    ---------------------

    Doubly Occupied:

       1A    -11.234731     2A    -11.220898     3A    -11.217837
       4A     -1.064489     5A     -0.932911     6A     -0.758043
       7A     -0.639544     8A     -0.582761     9A     -0.568947
      10A     -0.523169    11A     -0.493182    12A     -0.357476

  @DF-RHF Final Energy:  -117.11684655161500

   => Energetics <=

    Nuclear Repulsion Energy =             70.8303145022773748
    One-Electron Energy =                -296.7063449636499399
    Two-Electron Energy =                 108.7591839097575814
    Total Energy =                       -117.1168465516149979

  Dipole Moment: [D]
     X:     0.0393      Y:     0.3888      Z:    -0.1774     Total:     0.4291

    SAPT Results
  --------------------------------------------------------------------------------------------------------
    Electrostatics                 -8.42516444 [mEh]      -5.28687050 [kcal/mol]     -22.12026618 [kJ/mol]
      Elst10,r                     -8.42516444 [mEh]      -5.28687050 [kcal/mol]     -22.12026618 [kJ/mol]

    Exchange                       11.71864227 [mEh]       7.35355904 [kcal/mol]      30.76729103 [kJ/mol]
      Exch10                       11.71864227 [mEh]       7.35355904 [kcal/mol]      30.76729103 [kJ/mol]
      Exch10(S^2)                  11.63642882 [mEh]       7.30196933 [kcal/mol]      30.55143966 [kJ/mol]

    Induction                      -2.91579515 [mEh]      -1.82968908 [kcal/mol]      -7.65541912 [kJ/mol]
      Ind20,r                      -5.62171584 [mEh]      -3.52767995 [kcal/mol]     -14.75981290 [kJ/mol]
      Exch-Ind20,r                  4.09909296 [mEh]       2.57221967 [kcal/mol]      10.76216709 [kJ/mol]
      delta HF,r (2)               -1.39317228 [mEh]      -0.87422880 [kcal/mol]      -3.65777331 [kJ/mol]

    Dispersion                     -7.82197729 [mEh]      -4.90836485 [kcal/mol]     -20.53659855 [kJ/mol]
      Disp20                       -9.00579439 [mEh]      -5.65122130 [kcal/mol]     -23.64470992 [kJ/mol]
      Exch-Disp20                   1.18381710 [mEh]       0.74285644 [kcal/mol]       3.10811136 [kJ/mol]
      Disp20 (SS)                  -4.50289720 [mEh]      -2.82561065 [kcal/mol]     -11.82235496 [kJ/mol]
      Disp20 (OS)                  -4.50289720 [mEh]      -2.82561065 [kcal/mol]     -11.82235496 [kJ/mol]
      Exch-Disp20 (SS)              0.77256489 [mEh]       0.48479178 [kcal/mol]       2.02836883 [kJ/mol]
      Exch-Disp20 (OS)              0.41125221 [mEh]       0.25806466 [kcal/mol]       1.07974254 [kJ/mol]

  Total HF                          0.37768268 [mEh]       0.23699946 [kcal/mol]       0.99160573 [kJ/mol]
  Total SAPT0                      -7.44429462 [mEh]      -4.67136540 [kcal/mol]     -19.54499282 [kJ/mol]

  Special recipe for scaled SAPT0 (see Manual):
    Electrostatics sSAPT0          -8.42516444 [mEh]      -5.28687050 [kcal/mol]     -22.12026618 [kJ/mol]
    Exchange sSAPT0                11.71864227 [mEh]       7.35355904 [kcal/mol]      30.76729103 [kJ/mol]
    Induction sSAPT0               -2.82829740 [mEh]      -1.77478341 [kcal/mol]      -7.42569380 [kJ/mol]
    Dispersion sSAPT0              -7.79670796 [mEh]      -4.89250811 [kcal/mol]     -20.47025393 [kJ/mol]
  Total sSAPT0                     -7.33152753 [mEh]      -4.60060298 [kcal/mol]     -19.24892288 [kJ/mol]
  --------------------------------------------------------------------------------------------------------

*** Psi4 exiting successfully. Buy a developer a beer!
