                               Psi4 1.3.2 release

  ==> Input File <==

--------------------------------------------------------------------------
# Any line starting with the # character is a comment line
#! Sample  computation

memory 22 gb

molecule Dimer {
0 1
 C  2.649210   -0.460171   -0.233606
 C  1.158711   -0.203971   -0.113981
 O  0.685606    0.928942   -0.172310
 N  0.386673   -1.307521    0.037365
 H -0.623093   -1.217853    0.058688
 H  0.800766   -2.220231    0.071209
 C  3.468431    0.701006    0.308656
 H  3.297535    0.828543    1.376631
 H  4.531663    0.529791    0.148327
 H  3.180142    1.624872   -0.186511
 H  2.908251   -1.393673    0.268812
 H  2.858892   -0.603838   -1.296562

 --
0 1
 H  -4.369713   -0.109210    0.111905
 C  -2.691993    1.324154   -0.043192
 C  -3.268452   -0.046956    0.066549
 O  -2.616824   -1.077794    0.108435
 H  -1.604908    1.302082   -0.084524
 H  -3.100115    1.803884   -0.935045
 H  -3.031840    1.914726    0.809957

units angstrom

no_reorient
symmetry c1
}

set globals{
  basis jun-cc-pvtz
}

energy('sapt0')

--------------------------------------------------------------------------

  //              Dimer HF             //
    Molecular point group: c1
  Charge       = 0
  Multiplicity = 1
  Basis Set: JUN-CC-PVTZ
    Blend: JUN-CC-PVTZ
  Basis Set: (JUN-CC-PVTZ AUX)
    Blend: JUN-CC-PVTZ-JKFIT
  @DF-RHF Final Energy:  -400.09352609559977
    Total Energy =                       -400.0935260955997705
  //            Monomer A HF           //
    Molecular point group: c1
  Multiplicity = 1
  Basis Set: JUN-CC-PVTZ
    Blend: JUN-CC-PVTZ
  Basis Set: (JUN-CC-PVTZ AUX)
    Blend: JUN-CC-PVTZ-JKFIT
  @DF-RHF Final Energy:  -247.10939821802111
    Total Energy =                       -247.1093982180211128
  //            Monomer B HF           //
    Molecular point group: c1

    Geometry (in Angstrom), charge = 0, multiplicity = 1:

       Center              X                  Y                   Z               Mass
    ------------   -----------------  -----------------  -----------------  -----------------
      Gh(C)           2.690196520168    -0.439303813563    -0.230703957179    12.000000000000
      Gh(C)           1.199697520168    -0.183103813563    -0.111078957179    12.000000000000
      Gh(O)           0.726592520168     0.949809186437    -0.169407957179    15.994914619570
      Gh(N)           0.427659520168    -1.286653813563     0.040267042821    14.003074004430
      Gh(H)          -0.582106479832    -1.196985813563     0.061590042821     1.007825032230
      Gh(H)           0.841752520168    -2.199363813563     0.074111042821     1.007825032230
      Gh(C)           3.509417520168     0.721873186437     0.311558042821    12.000000000000
      Gh(H)           3.338521520168     0.849410186437     1.379533042821     1.007825032230
      Gh(H)           4.572649520168     0.550658186437     0.151229042821     1.007825032230
      Gh(H)           3.221128520168     1.645739186437    -0.183608957179     1.007825032230
      Gh(H)           2.949237520168    -1.372805813563     0.271714042821     1.007825032230
      Gh(H)           2.899878520168    -0.582970813563    -1.293659957179     1.007825032230
         H           -4.328726479832    -0.088342813563     0.114807042821     1.007825032230
         C           -2.651006479832     1.345021186437    -0.040289957179    12.000000000000
         C           -3.227465479832    -0.026088813563     0.069451042821    12.000000000000
         O           -2.575837479832    -1.056926813563     0.111337042821    15.994914619570
         H           -1.563921479832     1.322949186437    -0.081621957179     1.007825032230
         H           -3.059128479832     1.824751186437    -0.932142957179     1.007825032230
         H           -2.990853479832     1.935593186437     0.812859042821     1.007825032230

  Charge       = 0
  Multiplicity = 1
  Basis Set: JUN-CC-PVTZ
    Blend: JUN-CC-PVTZ
  Basis Set: (JUN-CC-PVTZ AUX)
    Blend: JUN-CC-PVTZ-JKFIT

    Orbital Energies [Eh]
    ---------------------

    Doubly Occupied:

       1A    -20.559514     2A    -11.337556     3A    -11.243957
       4A     -1.386802     5A     -1.027420     6A     -0.803664
       7A     -0.674393     8A     -0.624012     9A     -0.606926
      10A     -0.564065    11A     -0.500418    12A     -0.428769

  @DF-RHF Final Energy:  -152.97527110140587

   => Energetics <=

    Nuclear Repulsion Energy =             69.6283531719668360
    One-Electron Energy =                -345.6922535935176484
    Two-Electron Energy =                 123.0886293201449178
    Total Energy =                       -152.9752711014058661

  Dipole Moment: [D]
     X:    -1.3708      Y:     3.0628      Z:    -0.1453     Total:     3.3587

    SAPT Results
  --------------------------------------------------------------------------------------------------------
    Electrostatics                -18.79917362 [mEh]     -11.79665955 [kcal/mol]     -49.35722354 [kJ/mol]
      Elst10,r                    -18.79917362 [mEh]     -11.79665955 [kcal/mol]     -49.35722354 [kJ/mol]

    Exchange                       15.80635829 [mEh]       9.91863957 [kcal/mol]      41.49958797 [kJ/mol]
      Exch10                       15.80635829 [mEh]       9.91863957 [kcal/mol]      41.49958797 [kJ/mol]
      Exch10(S^2)                  15.70680182 [mEh]       9.85616695 [kcal/mol]      41.23820250 [kJ/mol]

    Induction                      -5.86396084 [mEh]      -3.67969098 [kcal/mol]     -15.39582707 [kJ/mol]
      Ind20,r                      -7.06235290 [mEh]      -4.43169335 [kcal/mol]     -18.54220498 [kJ/mol]
      Exch-Ind20,r                  3.48670859 [mEh]       2.18794267 [kcal/mol]       9.15435214 [kJ/mol]
      delta HF,r (2)               -2.28831653 [mEh]      -1.43594030 [kcal/mol]      -6.00797422 [kJ/mol]

    Dispersion                     -6.59552202 [mEh]      -4.13875255 [kcal/mol]     -17.31654068 [kJ/mol]
      Disp20                       -7.79296596 [mEh]      -4.89015997 [kcal/mol]     -20.46042932 [kJ/mol]
      Exch-Disp20                   1.19744394 [mEh]       0.75140742 [kcal/mol]       3.14388863 [kJ/mol]
      Disp20 (SS)                  -3.89648298 [mEh]      -2.44507999 [kcal/mol]     -10.23021466 [kJ/mol]
      Disp20 (OS)                  -3.89648298 [mEh]      -2.44507999 [kcal/mol]     -10.23021466 [kJ/mol]
      Exch-Disp20 (SS)              0.75827829 [mEh]       0.47582681 [kcal/mol]       1.99085937 [kJ/mol]
      Exch-Disp20 (OS)              0.43916565 [mEh]       0.27558061 [kcal/mol]       1.15302926 [kJ/mol]

  Total HF                         -8.85677617 [mEh]      -5.55771096 [kcal/mol]     -23.25346264 [kJ/mol]
  Total SAPT0                     -15.45229820 [mEh]      -9.69646351 [kcal/mol]     -40.57000332 [kJ/mol]

  Special recipe for scaled SAPT0 (see Manual):
    Electrostatics sSAPT0         -18.79917362 [mEh]     -11.79665955 [kcal/mol]     -49.35722354 [kJ/mol]
    Exchange sSAPT0                15.80635829 [mEh]       9.91863957 [kcal/mol]      41.49958797 [kJ/mol]
    Induction sSAPT0               -5.79723893 [mEh]      -3.63782235 [kcal/mol]     -15.22064872 [kJ/mol]
    Dispersion sSAPT0              -6.57260765 [mEh]      -4.12437357 [kcal/mol]     -17.25637900 [kJ/mol]
  Total sSAPT0                    -15.36266191 [mEh]      -9.64021589 [kcal/mol]     -40.33466329 [kJ/mol]
  --------------------------------------------------------------------------------------------------------

*** Psi4 exiting successfully. Buy a developer a beer!
