                               Psi4 1.3.2 release

  ==> Input File <==

--------------------------------------------------------------------------
# Any line starting with the # character is a comment line
#! Sample  computation

memory 22 gb

molecule Dimer {
0 1
 C 3.251349   -0.257591   -0.000810
 C 1.744298   -0.154757    0.000140
 O 1.035297   -1.159135    0.000458
 N 1.231666    1.099009    0.001218
 H 3.557858   -0.820332    0.878369
 H 3.556593   -0.823320   -0.878487
 H 3.750304    0.708845   -0.002717
 H 0.223291    1.225778    0.000576
 H 1.834300    1.900001   -0.001161

 --
0 1
 H  -1.270404   -0.863070    0.001043
 C  -3.475582   -0.557831   -0.000182
 C  -2.055765   -0.091867    0.000178
 O  -1.736307    1.089130   -0.000630
 H  -4.161965    0.283819   -0.001178
 H  -3.644245   -1.186921   -0.875526
 H  -3.645112   -1.185550    0.875975

units angstrom

no_reorient
symmetry c1
}

set globals{
  basis jun-cc-pvtz
}

energy('sapt0')

--------------------------------------------------------------------------

  //              Dimer HF             //
    Molecular point group: c1
  Charge       = 0
  Multiplicity = 1
  Basis Set: JUN-CC-PVTZ
    Blend: JUN-CC-PVTZ
  Basis Set: (JUN-CC-PVTZ AUX)
    Blend: JUN-CC-PVTZ-JKFIT
  @DF-RHF Final Energy:  -361.04670523509844
    Total Energy =                       -361.0467052350984432
  //            Monomer A HF           //
    Molecular point group: c1
  Multiplicity = 1
  Basis Set: JUN-CC-PVTZ
    Blend: JUN-CC-PVTZ
  Basis Set: (JUN-CC-PVTZ AUX)
    Blend: JUN-CC-PVTZ-JKFIT
  @DF-RHF Final Energy:  -208.06141673601621
    Total Energy =                       -208.0614167360162128
  //            Monomer B HF           //
    Molecular point group: c1

    Geometry (in Angstrom), charge = 0, multiplicity = 1:

       Center              X                  Y                   Z               Mass
    ------------   -----------------  -----------------  -----------------  -----------------
      Gh(C)           3.253208973819    -0.264950799825    -0.000839945804    12.000000000000
      Gh(C)           1.746157973819    -0.162116799825     0.000110054196    12.000000000000
      Gh(O)           1.037156973819    -1.166494799825     0.000428054196    15.994914619570
      Gh(N)           1.233525973819     1.091649200175     0.001188054196    14.003074004430
      Gh(H)           3.559717973819    -0.827691799825     0.878339054196     1.007825032230
      Gh(H)           3.558452973819    -0.830679799825    -0.878516945804     1.007825032230
      Gh(H)           3.752163973819     0.701485200175    -0.002746945804     1.007825032230
      Gh(H)           0.225150973819     1.218418200175     0.000546054196     1.007825032230
      Gh(H)           1.836159973819     1.892641200175    -0.001190945804     1.007825032230
         H           -1.268544026181    -0.870429799825     0.001013054196     1.007825032230
         C           -3.473722026181    -0.565190799825    -0.000211945804    12.000000000000
         C           -2.053905026181    -0.099226799825     0.000148054196    12.000000000000
         O           -1.734447026181     1.081770200175    -0.000659945804    15.994914619570
         H           -4.160105026181     0.276459200175    -0.001207945804     1.007825032230
         H           -3.642385026181    -1.194280799825    -0.875555945804     1.007825032230
         H           -3.643252026181    -1.192909799825     0.875945054196     1.007825032230

  Charge       = 0
  Multiplicity = 1
  Basis Set: JUN-CC-PVTZ
    Blend: JUN-CC-PVTZ
  Basis Set: (JUN-CC-PVTZ AUX)
    Blend: JUN-CC-PVTZ-JKFIT

    Orbital Energies [Eh]
    ---------------------

    Doubly Occupied:

       1A    -20.559326     2A    -11.337829     3A    -11.242869
       4A     -1.384942     5A     -1.025453     6A     -0.805534
       7A     -0.674360     8A     -0.622080     9A     -0.606240
      10A     -0.563538    11A     -0.499230    12A     -0.429445

  @DF-RHF Final Energy:  -152.97494606173515

   => Energetics <=

    Nuclear Repulsion Energy =             69.6292344161118422
    One-Electron Energy =                -345.7066718810307862
    Two-Electron Energy =                 123.1024914031838051
    Total Energy =                       -152.9749460617351247

  Dipole Moment: [D]
     X:    -1.3223      Y:    -3.0755      Z:     0.0018     Total:     3.3477

    SAPT Results
  --------------------------------------------------------------------------------------------------------
    Electrostatics                -21.24919861 [mEh]     -13.33407344 [kcal/mol]     -55.78976327 [kJ/mol]
      Elst10,r                    -21.24919861 [mEh]     -13.33407344 [kcal/mol]     -55.78976327 [kJ/mol]

    Exchange                       17.75339101 [mEh]      11.14042105 [kcal/mol]      46.61152168 [kJ/mol]
      Exch10                       17.75339101 [mEh]      11.14042105 [kcal/mol]      46.61152168 [kJ/mol]
      Exch10(S^2)                  17.65582452 [mEh]      11.07919715 [kcal/mol]      46.35536090 [kJ/mol]

    Induction                      -6.84662975 [mEh]      -4.29632503 [kcal/mol]     -17.97582393 [kJ/mol]
      Ind20,r                      -8.55730892 [mEh]      -5.36979242 [kcal/mol]     -22.46721147 [kJ/mol]
      Exch-Ind20,r                  4.39050827 [mEh]       2.75508553 [kcal/mol]      11.52727788 [kJ/mol]
      delta HF,r (2)               -2.67982910 [mEh]      -1.68161815 [kcal/mol]      -7.03589033 [kJ/mol]

    Dispersion                     -6.90251564 [mEh]      -4.33139396 [kcal/mol]     -18.12255232 [kJ/mol]
      Disp20                       -8.24536811 [mEh]      -5.17404660 [kcal/mol]     -21.64821100 [kJ/mol]
      Exch-Disp20                   1.34285247 [mEh]       0.84265265 [kcal/mol]       3.52565868 [kJ/mol]
      Disp20 (SS)                  -4.12268406 [mEh]      -2.58702330 [kcal/mol]     -10.82410550 [kJ/mol]
      Disp20 (OS)                  -4.12268406 [mEh]      -2.58702330 [kcal/mol]     -10.82410550 [kJ/mol]
      Exch-Disp20 (SS)              0.84366223 [mEh]       0.52940604 [kcal/mol]       2.21503488 [kJ/mol]
      Exch-Disp20 (OS)              0.49919024 [mEh]       0.31324661 [kcal/mol]       1.31062380 [kJ/mol]

  Total HF                        -10.34243735 [mEh]      -6.48997742 [kcal/mol]     -27.15406551 [kJ/mol]
  Total SAPT0                     -17.24495299 [mEh]     -10.82137137 [kcal/mol]     -45.27661783 [kJ/mol]

  Special recipe for scaled SAPT0 (see Manual):
    Electrostatics sSAPT0         -21.24919861 [mEh]     -13.33407344 [kcal/mol]     -55.78976327 [kJ/mol]
    Exchange sSAPT0                17.75339101 [mEh]      11.14042105 [kcal/mol]      46.61152168 [kJ/mol]
    Induction sSAPT0               -6.77344064 [mEh]      -4.25039817 [kcal/mol]     -17.78366595 [kJ/mol]
    Dispersion sSAPT0              -6.88013049 [mEh]      -4.31734707 [kcal/mol]     -18.06378012 [kJ/mol]
  Total sSAPT0                    -17.14937874 [mEh]     -10.76139763 [kcal/mol]     -45.02568767 [kJ/mol]
  --------------------------------------------------------------------------------------------------------

*** Psi4 exiting successfully. Buy a developer a beer!
