                               Psi4 1.3.2 release

  ==> Input File <==

--------------------------------------------------------------------------
# Any line starting with the # character is a comment line
#! Sample  computation

memory 22 gb

molecule Dimer {
0 1
 C 3.078565   -0.082785    0.164354
 C 1.600713   -0.412538    0.084865
 O 0.889453   -0.015192   -0.835211
 N 1.117056   -1.179260    1.095375
 H 0.171028   -1.532769    1.029475
 H 1.735088   -1.554645    1.790766
 C 3.391373    1.266779   -0.463903
 H 2.900337    2.070320    0.083306
 H 4.463972    1.453423   -0.459841
 H 3.031750    1.294188   -1.489478
 H 3.412658   -0.121341    1.202486
 H 3.606796   -0.877199   -0.369065

 --
0 1
 H  -2.102771   -1.849108   -1.738561
 C  -2.230402    0.122390   -0.755761
 C  -1.960769   -1.347175   -0.765110
 O  -1.608848   -2.002253    0.202006
 H  -3.234426    0.268972   -1.171353
 C  -2.085060    0.790041    0.598814
 H  -2.764752    0.319182    1.311515
 H  -1.073381    0.618657    0.966549
 H  -1.534391    0.557929   -1.480571
 C  -2.359380    2.286063    0.513153
 H  -1.660728    2.765480   -0.173358
 H  -3.370131    2.480156    0.151283
 H  -2.255523    2.764483    1.486385

units angstrom

no_reorient
symmetry c1
}

set globals{
  basis jun-cc-pvtz
}

energy('sapt0')

--------------------------------------------------------------------------

  //              Dimer HF             //
    Molecular point group: c1
  Charge       = 0
  Multiplicity = 1
  Basis Set: JUN-CC-PVTZ
    Blend: JUN-CC-PVTZ
  Basis Set: (JUN-CC-PVTZ AUX)
    Blend: JUN-CC-PVTZ-JKFIT
  @DF-RHF Final Energy:  -478.18811050173355
    Total Energy =                       -478.1881105017334903
  //            Monomer A HF           //
    Molecular point group: c1
  Multiplicity = 1
  Basis Set: JUN-CC-PVTZ
    Blend: JUN-CC-PVTZ
  Basis Set: (JUN-CC-PVTZ AUX)
    Blend: JUN-CC-PVTZ-JKFIT
  @DF-RHF Final Energy:  -247.10956383629161
    Total Energy =                       -247.1095638362916134
  //            Monomer B HF           //
    Molecular point group: c1

    Geometry (in Angstrom), charge = 0, multiplicity = 1:

       Center              X                  Y                   Z               Mass
    ------------   -----------------  -----------------  -----------------  -----------------
      Gh(C)           3.087579285518    -0.023634465318     0.172100134956    12.000000000000
      Gh(C)           1.609727285518    -0.353387465318     0.092611134956    12.000000000000
      Gh(O)           0.898467285518     0.043958534682    -0.827464865044    15.994914619570
      Gh(N)           1.126070285518    -1.120109465318     1.103121134956    14.003074004430
      Gh(H)           0.180042285518    -1.473618465318     1.037221134956     1.007825032230
      Gh(H)           1.744102285518    -1.495494465318     1.798512134956     1.007825032230
      Gh(C)           3.400387285518     1.325929534682    -0.456156865044    12.000000000000
      Gh(H)           2.909351285518     2.129470534682     0.091052134956     1.007825032230
      Gh(H)           4.472986285518     1.512573534682    -0.452094865044     1.007825032230
      Gh(H)           3.040764285518     1.353338534682    -1.481731865044     1.007825032230
      Gh(H)           3.421672285518    -0.062190465318     1.210232134956     1.007825032230
      Gh(H)           3.615810285518    -0.818048465318    -0.361318865044     1.007825032230
         H           -2.093756714482    -1.789957465318    -1.730814865044     1.007825032230
         C           -2.221387714482     0.181540534682    -0.748014865044    12.000000000000
         C           -1.951754714482    -1.288024465318    -0.757363865044    12.000000000000
         O           -1.599833714482    -1.943102465318     0.209752134956    15.994914619570
         H           -3.225411714482     0.328122534682    -1.163606865044     1.007825032230
         C           -2.076045714482     0.849191534682     0.606560134956    12.000000000000
         H           -2.755737714482     0.378332534682     1.319261134956     1.007825032230
         H           -1.064366714482     0.677807534682     0.974295134956     1.007825032230
         H           -1.525376714482     0.617079534682    -1.472824865044     1.007825032230
         C           -2.350365714482     2.345213534682     0.520899134956    12.000000000000
         H           -1.651713714482     2.824630534682    -0.165611865044     1.007825032230
         H           -3.361116714482     2.539306534682     0.159029134956     1.007825032230
         H           -2.246508714482     2.823633534682     1.494131134956     1.007825032230

  Charge       = 0
  Multiplicity = 1
  Basis Set: JUN-CC-PVTZ
    Blend: JUN-CC-PVTZ
  Basis Set: (JUN-CC-PVTZ AUX)
    Blend: JUN-CC-PVTZ-JKFIT

    Orbital Energies [Eh]
    ---------------------

    Doubly Occupied:

       1A    -20.556541     2A    -11.332137     3A    -11.242533
       4A    -11.226420     5A    -11.218906     6A     -1.384903
       7A     -1.085607     8A     -0.979886     9A     -0.849679
      10A     -0.770322    11A     -0.673186    12A     -0.653528
      13A     -0.632697    14A     -0.570522    15A     -0.568791
      16A     -0.513218    17A     -0.501536    18A     -0.491843
      19A     -0.481743    20A     -0.421072

  @DF-RHF Final Energy:  -231.07153577038864

   => Energetics <=

    Nuclear Repulsion Energy =            172.3751127785092763
    One-Electron Energy =                -654.5831472882016442
    Two-Electron Energy =                 251.1364987393037325
    Total Energy =                       -231.0715357703886355

  Dipole Moment: [D]
     X:    -0.8928      Y:     2.2108      Z:    -2.0469     Total:     3.1424

    SAPT Results
  --------------------------------------------------------------------------------------------------------
    Electrostatics                -18.44695886 [mEh]     -11.57564145 [kcal/mol]     -48.43248381 [kJ/mol]
      Elst10,r                    -18.44695886 [mEh]     -11.57564145 [kcal/mol]     -48.43248381 [kJ/mol]

    Exchange                       17.08352559 [mEh]      10.72007415 [kcal/mol]      44.85279026 [kJ/mol]
      Exch10                       17.08352559 [mEh]      10.72007415 [kcal/mol]      44.85279026 [kJ/mol]
      Exch10(S^2)                  16.98184589 [mEh]      10.65626918 [kcal/mol]      44.58583024 [kJ/mol]

    Induction                      -5.64746179 [mEh]      -3.54383577 [kcal/mol]     -14.82740888 [kJ/mol]
      Ind20,r                      -8.42386330 [mEh]      -5.28605403 [kcal/mol]     -22.11685006 [kJ/mol]
      Exch-Ind20,r                  4.83526944 [mEh]       3.03417738 [kcal/mol]      12.69499818 [kJ/mol]
      delta HF,r (2)               -2.05886793 [mEh]      -1.29195913 [kcal/mol]      -5.40555700 [kJ/mol]

    Dispersion                    -10.48305858 [mEh]      -6.57821857 [kcal/mol]     -27.52326652 [kJ/mol]
      Disp20                      -12.08972740 [mEh]      -7.58641848 [kcal/mol]     -31.74157492 [kJ/mol]
      Exch-Disp20                   1.60666882 [mEh]       1.00819990 [kcal/mol]       4.21830840 [kJ/mol]
      Disp20 (SS)                  -6.04486370 [mEh]      -3.79320924 [kcal/mol]     -15.87078746 [kJ/mol]
      Disp20 (OS)                  -6.04486370 [mEh]      -3.79320924 [kcal/mol]     -15.87078746 [kJ/mol]
      Exch-Disp20 (SS)              1.00365195 [mEh]       0.62980111 [kcal/mol]       2.63508784 [kJ/mol]
      Exch-Disp20 (OS)              0.60301686 [mEh]       0.37839880 [kcal/mol]       1.58322056 [kJ/mol]

  Total HF                         -7.01089505 [mEh]      -4.39940307 [kcal/mol]     -18.40710243 [kJ/mol]
  Total SAPT0                     -17.49395364 [mEh]     -10.97762164 [kcal/mol]     -45.93036894 [kJ/mol]

  Special recipe for scaled SAPT0 (see Manual):
    Electrostatics sSAPT0         -18.44695886 [mEh]     -11.57564145 [kcal/mol]     -48.43248381 [kJ/mol]
    Exchange sSAPT0                17.08352559 [mEh]      10.72007415 [kcal/mol]      44.85279026 [kJ/mol]
    Induction sSAPT0               -5.56008641 [mEh]      -3.48900690 [kcal/mol]     -14.59800486 [kJ/mol]
    Dispersion sSAPT0             -10.45402539 [mEh]      -6.55999997 [kcal/mol]     -27.44703989 [kJ/mol]
  Total sSAPT0                    -17.37754507 [mEh]     -10.90457416 [kcal/mol]     -45.62473830 [kJ/mol]
  --------------------------------------------------------------------------------------------------------

*** Psi4 exiting successfully. Buy a developer a beer!
