                               Psi4 1.3.2 release

  ==> Input File <==

--------------------------------------------------------------------------
# Any line starting with the # character is a comment line
#! Sample  computation

memory 22 gb

molecule Dimer {
0 1
 C 2.238494   -0.931880    0.262267
 O 1.388098   -0.825978    1.135882
 N 2.270832   -0.204873   -0.876073
 H 3.037054   -0.309606   -1.515456
 H 1.595943    0.537312   -1.014778
 H 3.060404   -1.659586    0.331295

 --
0 1
 H  -0.461886    2.439944    1.280452
 C  -1.413943    0.559912    0.624117
 C  -0.487795    1.718217    0.445155
 O   0.218794    1.907097   -0.531562
 H  -2.390258    0.966072    0.912453
 C  -1.525648   -0.362348   -0.575644
 H  -1.863694    0.208572   -1.442567
 H  -0.535051   -0.746856   -0.817346
 H  -1.041714    0.014799    1.498771
 C  -2.476553   -1.519860   -0.299107
 H  -2.123869   -2.112265    0.545664
 H  -3.477194   -1.157316   -0.059597
 H  -2.558025   -2.180154   -1.161670

units angstrom

no_reorient
symmetry c1
}

set globals{
  basis jun-cc-pvtz
}

energy('sapt0')

--------------------------------------------------------------------------

  //              Dimer HF             //
    Molecular point group: c1
  Charge       = 0
  Multiplicity = 1
  Basis Set: JUN-CC-PVTZ
    Blend: JUN-CC-PVTZ
  Basis Set: (JUN-CC-PVTZ AUX)
    Blend: JUN-CC-PVTZ-JKFIT
  @DF-RHF Final Energy:  -400.08248757387292
    Total Energy =                       -400.0824875738728679
  //            Monomer A HF           //
    Molecular point group: c1
  Multiplicity = 1
  Basis Set: JUN-CC-PVTZ
    Blend: JUN-CC-PVTZ
  Basis Set: (JUN-CC-PVTZ AUX)
    Blend: JUN-CC-PVTZ-JKFIT
  @DF-RHF Final Energy:  -169.00337145237313
    Total Energy =                       -169.0033714523731305
  //            Monomer B HF           //
    Molecular point group: c1

    Geometry (in Angstrom), charge = 0, multiplicity = 1:

       Center              X                  Y                   Z               Mass
    ------------   -----------------  -----------------  -----------------  -----------------
      Gh(C)           2.181231670471    -0.965717580446     0.250089588004    12.000000000000
      Gh(O)           1.330835670471    -0.859815580446     1.123704588004    15.994914619570
      Gh(N)           2.213569670471    -0.238710580446    -0.888250411996    14.003074004430
      Gh(H)           2.979791670471    -0.343443580446    -1.527633411996     1.007825032230
      Gh(H)           1.538680670471     0.503474419554    -1.026955411996     1.007825032230
      Gh(H)           3.003141670471    -1.693423580446     0.319117588004     1.007825032230
         H           -0.519148329529     2.406106419554     1.268274588004     1.007825032230
         C           -1.471205329529     0.526074419554     0.611939588004    12.000000000000
         C           -0.545057329529     1.684379419554     0.432977588004    12.000000000000
         O            0.161531670471     1.873259419554    -0.543739411996    15.994914619570
         H           -2.447520329529     0.932234419554     0.900275588004     1.007825032230
         C           -1.582910329529    -0.396185580446    -0.587821411996    12.000000000000
         H           -1.920956329529     0.174734419554    -1.454744411996     1.007825032230
         H           -0.592313329529    -0.780693580446    -0.829523411996     1.007825032230
         H           -1.098976329529    -0.019038580446     1.486593588004     1.007825032230
         C           -2.533815329529    -1.553697580446    -0.311284411996    12.000000000000
         H           -2.181131329529    -2.146102580446     0.533486588004     1.007825032230
         H           -3.534456329529    -1.191153580446    -0.071774411996     1.007825032230
         H           -2.615287329529    -2.213991580446    -1.173847411996     1.007825032230

  Charge       = 0
  Multiplicity = 1
  Basis Set: JUN-CC-PVTZ
    Blend: JUN-CC-PVTZ
  Basis Set: (JUN-CC-PVTZ AUX)
    Blend: JUN-CC-PVTZ-JKFIT

    Orbital Energies [Eh]
    ---------------------

    Doubly Occupied:

       1A    -20.556466     2A    -11.332132     3A    -11.242566
       4A    -11.226504     5A    -11.218907     6A     -1.384698
       7A     -1.085639     8A     -0.979961     9A     -0.849682
      10A     -0.770479    11A     -0.673377    12A     -0.653311
      13A     -0.632606    14A     -0.571215    15A     -0.568143
      16A     -0.513366    17A     -0.501493    18A     -0.491825
      19A     -0.481704    20A     -0.421094

  @DF-RHF Final Energy:  -231.07146410219272

   => Energetics <=

    Nuclear Repulsion Energy =            172.3604602015208798
    One-Electron Energy =                -654.5535142729484051
    Two-Electron Energy =                 251.1215899692348046
    Total Energy =                       -231.0714641021927207

  Dipole Moment: [D]
     X:    -2.0149      Y:    -1.0520      Z:     2.1735     Total:     3.1450

    SAPT Results
  --------------------------------------------------------------------------------------------------------
    Electrostatics                -18.54403726 [mEh]     -11.63655907 [kcal/mol]     -48.68736313 [kJ/mol]
      Elst10,r                    -18.54403726 [mEh]     -11.63655907 [kcal/mol]     -48.68736313 [kJ/mol]

    Exchange                       16.62407872 [mEh]      10.43176689 [kcal/mol]      43.64651266 [kJ/mol]
      Exch10                       16.62407872 [mEh]      10.43176689 [kcal/mol]      43.64651266 [kJ/mol]
      Exch10(S^2)                  16.52352616 [mEh]      10.36866921 [kcal/mol]      43.38251196 [kJ/mol]

    Induction                      -5.73206076 [mEh]      -3.59692243 [kcal/mol]     -15.04952345 [kJ/mol]
      Ind20,r                      -8.21925160 [mEh]      -5.15765825 [kcal/mol]     -21.57964210 [kJ/mol]
      Exch-Ind20,r                  4.59245246 [mEh]       2.88180743 [kcal/mol]      12.05748228 [kJ/mol]
      delta HF,r (2)               -2.10526163 [mEh]      -1.32107161 [kcal/mol]      -5.52736364 [kJ/mol]

    Dispersion                     -9.78055907 [mEh]      -6.13739347 [kcal/mol]     -25.67885430 [kJ/mol]
      Disp20                      -11.27801365 [mEh]      -7.07706041 [kcal/mol]     -29.61042075 [kJ/mol]
      Exch-Disp20                   1.49745458 [mEh]       0.93966693 [kcal/mol]       3.93156645 [kJ/mol]
      Disp20 (SS)                  -5.63900682 [mEh]      -3.53853020 [kcal/mol]     -14.80521037 [kJ/mol]
      Disp20 (OS)                  -5.63900682 [mEh]      -3.53853020 [kcal/mol]     -14.80521037 [kJ/mol]
      Exch-Disp20 (SS)              0.93580567 [mEh]       0.58722692 [kcal/mol]       2.45695745 [kJ/mol]
      Exch-Disp20 (OS)              0.56164890 [mEh]       0.35244001 [kcal/mol]       1.47460900 [kJ/mol]

  Total HF                         -7.65201931 [mEh]      -4.80171461 [kcal/mol]     -20.09037392 [kJ/mol]
  Total SAPT0                     -17.43257838 [mEh]     -10.93910808 [kcal/mol]     -45.76922822 [kJ/mol]

  Special recipe for scaled SAPT0 (see Manual):
    Electrostatics sSAPT0         -18.54403726 [mEh]     -11.63655907 [kcal/mol]     -48.68736313 [kJ/mol]
    Exchange sSAPT0                16.62407872 [mEh]      10.43176689 [kcal/mol]      43.64651266 [kJ/mol]
    Induction sSAPT0               -5.64770854 [mEh]      -3.54399062 [kcal/mol]     -14.82805674 [kJ/mol]
    Dispersion sSAPT0              -9.75305446 [mEh]      -6.12013407 [kcal/mol]     -25.60664096 [kJ/mol]
  Total sSAPT0                    -17.32072155 [mEh]     -10.86891687 [kcal/mol]     -45.47554817 [kJ/mol]
  --------------------------------------------------------------------------------------------------------

*** Psi4 exiting successfully. Buy a developer a beer!
