                               Psi4 1.3.2 release

  ==> Input File <==

--------------------------------------------------------------------------
# Any line starting with the # character is a comment line
#! Sample  computation

memory 22 gb

molecule Dimer {
0 1
 C -3.343165   -0.850932   -0.195055
 C -1.992661   -0.180491   -0.109639
 O -1.160660   -0.290689   -1.006876
 N -1.755206    0.538171    1.016644
 H -3.923806   -0.766770    0.720849
 H -3.899162   -0.399154   -1.014665
 H -3.192877   -1.900682   -0.435273
 H -0.899368    1.074657    1.080286
 H -2.476452    0.677534    1.699021

 --
0 1
 H  1.388768    2.256826   -1.421281
 C  1.905208    0.241477   -0.685828
 C  1.311830    1.604138   -0.533806
 O  0.769843    2.024764    0.475054
 H  2.936558    0.375481   -1.033051
 C  1.844391   -0.623941    0.558796
 H  2.358538   -0.118998    1.378737
 H  0.802058   -0.732658    0.858571
 H  1.363892   -0.229009   -1.513528
 C  2.458912   -1.995891    0.312291
 H  1.927502   -2.516763   -0.484844
 H  3.505375   -1.909983    0.016092
 H  2.414859   -2.616444    1.206601

units angstrom

no_reorient
symmetry c1
}

set globals{
  basis jun-cc-pvtz
}

energy('sapt0')

--------------------------------------------------------------------------

  //              Dimer HF             //
    Molecular point group: c1
  Charge       = 0
  Multiplicity = 1
  Basis Set: JUN-CC-PVTZ
    Blend: JUN-CC-PVTZ
  Basis Set: (JUN-CC-PVTZ AUX)
    Blend: JUN-CC-PVTZ-JKFIT
  @DF-RHF Final Energy:  -439.14055213571368
    Total Energy =                       -439.1405521357137332
  //            Monomer A HF           //
    Molecular point group: c1
  Multiplicity = 1
  Basis Set: JUN-CC-PVTZ
    Blend: JUN-CC-PVTZ
  Basis Set: (JUN-CC-PVTZ AUX)
    Blend: JUN-CC-PVTZ-JKFIT
  @DF-RHF Final Energy:  -208.06172087423215
    Total Energy =                       -208.0617208742321509
  //            Monomer B HF           //
    Molecular point group: c1

    Geometry (in Angstrom), charge = 0, multiplicity = 1:

       Center              X                  Y                   Z               Mass
    ------------   -----------------  -----------------  -----------------  -----------------
      Gh(C)          -3.325687125759    -0.902387426496    -0.187095801089    12.000000000000
      Gh(C)          -1.975183125759    -0.231946426496    -0.101679801089    12.000000000000
      Gh(O)          -1.143182125759    -0.342144426496    -0.998916801089    15.994914619570
      Gh(N)          -1.737728125759     0.486715573504     1.024603198911    14.003074004430
      Gh(H)          -3.906328125759    -0.818225426496     0.728808198911     1.007825032230
      Gh(H)          -3.881684125759    -0.450609426496    -1.006705801089     1.007825032230
      Gh(H)          -3.175399125759    -1.952137426496    -0.427313801089     1.007825032230
      Gh(H)          -0.881890125759     1.023201573504     1.088245198911     1.007825032230
      Gh(H)          -2.458974125759     0.626078573504     1.706980198911     1.007825032230
         H            1.406245874241     2.205370573504    -1.413321801089     1.007825032230
         C            1.922685874241     0.190021573504    -0.677868801089    12.000000000000
         C            1.329307874241     1.552682573504    -0.525846801089    12.000000000000
         O            0.787320874241     1.973308573504     0.483013198911    15.994914619570
         H            2.954035874241     0.324025573504    -1.025091801089     1.007825032230
         C            1.861868874241    -0.675396426496     0.566755198911    12.000000000000
         H            2.376015874241    -0.170453426496     1.386696198911     1.007825032230
         H            0.819535874241    -0.784113426496     0.866530198911     1.007825032230
         H            1.381369874241    -0.280464426496    -1.505568801089     1.007825032230
         C            2.476389874241    -2.047346426496     0.320250198911    12.000000000000
         H            1.944979874241    -2.568218426496    -0.476884801089     1.007825032230
         H            3.522852874241    -1.961438426496     0.024051198911     1.007825032230
         H            2.432336874241    -2.667899426496     1.214560198911     1.007825032230

  Charge       = 0
  Multiplicity = 1
  Basis Set: JUN-CC-PVTZ
    Blend: JUN-CC-PVTZ
  Basis Set: (JUN-CC-PVTZ AUX)
    Blend: JUN-CC-PVTZ-JKFIT

    Orbital Energies [Eh]
    ---------------------

    Doubly Occupied:

       1A    -20.556528     2A    -11.332125     3A    -11.242520
       4A    -11.226407     5A    -11.218884     6A     -1.384853
       7A     -1.085615     8A     -0.979904     9A     -0.849680
      10A     -0.770326    11A     -0.673194    12A     -0.653554
      13A     -0.632672    14A     -0.570577    15A     -0.568748
      16A     -0.513203    17A     -0.501491    18A     -0.491826
      19A     -0.481744    20A     -0.421095

  @DF-RHF Final Energy:  -231.07152241948049

   => Energetics <=

    Nuclear Repulsion Energy =            172.3819264722382627
    One-Electron Energy =                -654.5969965629222997
    Two-Electron Energy =                 251.1435476712035495
    Total Energy =                       -231.0715224194804875

  Dipole Moment: [D]
     X:     1.4772      Y:    -1.6544      Z:    -2.2262     Total:     3.1425

    SAPT Results
  --------------------------------------------------------------------------------------------------------
    Electrostatics                -18.60670627 [mEh]     -11.67588446 [kcal/mol]     -48.85190059 [kJ/mol]
      Elst10,r                    -18.60670627 [mEh]     -11.67588446 [kcal/mol]     -48.85190059 [kJ/mol]

    Exchange                       17.02692143 [mEh]      10.68455450 [kcal/mol]      44.70417605 [kJ/mol]
      Exch10                       17.02692143 [mEh]      10.68455450 [kcal/mol]      44.70417605 [kJ/mol]
      Exch10(S^2)                  16.92461877 [mEh]      10.62035862 [kcal/mol]      44.43558045 [kJ/mol]

    Induction                      -5.72905716 [mEh]      -3.59503764 [kcal/mol]     -15.04163749 [kJ/mol]
      Ind20,r                      -8.47009878 [mEh]      -5.31506723 [kcal/mol]     -22.23824128 [kJ/mol]
      Exch-Ind20,r                  4.81336962 [mEh]       3.02043504 [kcal/mol]      12.63750021 [kJ/mol]
      delta HF,r (2)               -2.07232800 [mEh]      -1.30040545 [kcal/mol]      -5.44089641 [kJ/mol]

    Dispersion                    -10.24319755 [mEh]      -6.42770350 [kcal/mol]     -26.89351146 [kJ/mol]
      Disp20                      -11.83030177 [mEh]      -7.42362644 [kcal/mol]     -31.06045302 [kJ/mol]
      Exch-Disp20                   1.58710422 [mEh]       0.99592293 [kcal/mol]       4.16694156 [kJ/mol]
      Disp20 (SS)                  -5.91515089 [mEh]      -3.71181322 [kcal/mol]     -15.53022651 [kJ/mol]
      Disp20 (OS)                  -5.91515089 [mEh]      -3.71181322 [kcal/mol]     -15.53022651 [kJ/mol]
      Exch-Disp20 (SS)              0.99127854 [mEh]       0.62203668 [kcal/mol]       2.60260145 [kJ/mol]
      Exch-Disp20 (OS)              0.59582568 [mEh]       0.37388626 [kcal/mol]       1.56434010 [kJ/mol]

  Total HF                         -7.30884200 [mEh]      -4.58636760 [kcal/mol]     -19.18936203 [kJ/mol]
  Total SAPT0                     -17.55203955 [mEh]     -11.01407110 [kcal/mol]     -46.08287349 [kJ/mol]

  Special recipe for scaled SAPT0 (see Manual):
    Electrostatics sSAPT0         -18.60670627 [mEh]     -11.67588446 [kcal/mol]     -48.85190059 [kJ/mol]
    Exchange sSAPT0                17.02692143 [mEh]      10.68455450 [kcal/mol]      44.70417605 [kJ/mol]
    Induction sSAPT0               -5.64124372 [mEh]      -3.53993388 [kcal/mol]     -14.81108334 [kJ/mol]
    Dispersion sSAPT0             -10.21424297 [mEh]      -6.40953423 [kcal/mol]     -26.81749123 [kJ/mol]
  Total sSAPT0                    -17.43527153 [mEh]     -10.94079807 [kcal/mol]     -45.77629911 [kJ/mol]
  --------------------------------------------------------------------------------------------------------

*** Psi4 exiting successfully. Buy a developer a beer!
