                               Psi4 1.3.2 release

  ==> Input File <==

--------------------------------------------------------------------------
# Any line starting with the # character is a comment line
#! Sample  computation

memory 22 gb

molecule Dimer {
0 1
 C -1.708901   -0.116662    0.000095
 O -1.152080   -1.206958   -0.000224
 N -1.074617    1.074516   -0.000030
 H -1.606254    1.925365    0.000041
 H -0.059723    1.106997   -0.000239
 H -2.804295   -0.022634    0.000099

 --
0 1
 C  2.037143   -0.546216    0.000103
 O  1.876137    0.663173    0.000087
 H  1.180940   -1.231542   -0.000061
 H  3.049743   -0.972249    0.000282

units angstrom

no_reorient
symmetry c1
}

set globals{
  basis jun-cc-pvtz
}

energy('sapt0')

--------------------------------------------------------------------------

  //              Dimer HF             //
    Molecular point group: c1
  Charge       = 0
  Multiplicity = 1
  Basis Set: JUN-CC-PVTZ
    Blend: JUN-CC-PVTZ
  Basis Set: (JUN-CC-PVTZ AUX)
    Blend: JUN-CC-PVTZ-JKFIT
  @DF-RHF Final Energy:  -282.92540246141738
    Total Energy =                       -282.9254024614173773
  //            Monomer A HF           //
    Molecular point group: c1
  Multiplicity = 1
  Basis Set: JUN-CC-PVTZ
    Blend: JUN-CC-PVTZ
  Basis Set: (JUN-CC-PVTZ AUX)
    Blend: JUN-CC-PVTZ-JKFIT
  @DF-RHF Final Energy:  -169.00319358603127
    Total Energy =                       -169.0031935860312728
  //            Monomer B HF           //
    Molecular point group: c1

    Geometry (in Angstrom), charge = 0, multiplicity = 1:

       Center              X                  Y                   Z               Mass
    ------------   -----------------  -----------------  -----------------  -----------------
      Gh(C)          -1.711976069814    -0.106085715268     0.000096498572    12.000000000000
      Gh(O)          -1.155155069814    -1.196381715268    -0.000222501428    15.994914619570
      Gh(N)          -1.077692069814     1.085092284732    -0.000028501428    14.003074004430
      Gh(H)          -1.609329069814     1.935941284732     0.000042498572     1.007825032230
      Gh(H)          -0.062798069814     1.117573284732    -0.000237501428     1.007825032230
      Gh(H)          -2.807370069814    -0.012057715268     0.000100498572     1.007825032230
         C            2.034067930186    -0.535639715268     0.000104498572    12.000000000000
         O            1.873061930186     0.673749284732     0.000088498572    15.994914619570
         H            1.177864930186    -1.220965715268    -0.000059501428     1.007825032230
         H            3.046667930186    -0.961672715268     0.000283498572     1.007825032230

  Charge       = 0
  Multiplicity = 1
  Basis Set: JUN-CC-PVTZ
    Blend: JUN-CC-PVTZ
  Basis Set: (JUN-CC-PVTZ AUX)
    Blend: JUN-CC-PVTZ-JKFIT

    Orbital Energies [Eh]
    ---------------------

    Doubly Occupied:

       1A    -20.578806     2A    -11.343843     3A     -1.397519
       4A     -0.873392     5A     -0.695994     6A     -0.647147
       7A     -0.530803     8A     -0.446012

  @DF-RHF Final Energy:  -113.91197934900191

   => Energetics <=

    Nuclear Repulsion Energy =             31.0855090561023424
    One-Electron Energy =                -216.9679443186004448
    Two-Electron Energy =                  71.9704559134961812
    Total Energy =                       -113.9119793490019106

  Dipole Moment: [D]
     X:     0.3831      Y:    -2.9024      Z:     0.0000     Total:     2.9275

    SAPT Results
  --------------------------------------------------------------------------------------------------------
    Electrostatics                -20.31148842 [mEh]     -12.74565141 [kcal/mol]     -53.32780550 [kJ/mol]
      Elst10,r                    -20.31148842 [mEh]     -12.74565141 [kcal/mol]     -53.32780550 [kJ/mol]

    Exchange                       16.41726250 [mEh]      10.30198775 [kcal/mol]      43.10351675 [kJ/mol]
      Exch10                       16.41726250 [mEh]      10.30198775 [kcal/mol]      43.10351675 [kJ/mol]
      Exch10(S^2)                  16.33476124 [mEh]      10.25021743 [kcal/mol]      42.88690972 [kJ/mol]

    Induction                      -6.33530046 [mEh]      -3.97546106 [kcal/mol]     -16.63332907 [kJ/mol]
      Ind20,r                      -7.95404065 [mEh]      -4.99123586 [kcal/mol]     -20.88333086 [kJ/mol]
      Exch-Ind20,r                  4.09029053 [mEh]       2.56669606 [kcal/mol]      10.73905631 [kJ/mol]
      delta HF,r (2)               -2.47155034 [mEh]      -1.55092125 [kcal/mol]      -6.48905452 [kJ/mol]

    Dispersion                     -6.33163831 [mEh]      -3.97316302 [kcal/mol]     -16.62371409 [kJ/mol]
      Disp20                       -7.53144971 [mEh]      -4.72605604 [kcal/mol]     -19.77381848 [kJ/mol]
      Exch-Disp20                   1.19981140 [mEh]       0.75289302 [kcal/mol]       3.15010440 [kJ/mol]
      Disp20 (SS)                  -3.76572485 [mEh]      -2.36302802 [kcal/mol]      -9.88690924 [kJ/mol]
      Disp20 (OS)                  -3.76572485 [mEh]      -2.36302802 [kcal/mol]      -9.88690924 [kJ/mol]
      Exch-Disp20 (SS)              0.75367606 [mEh]       0.47293887 [kcal/mol]       1.97877622 [kJ/mol]
      Exch-Disp20 (OS)              0.44613534 [mEh]       0.27995415 [kcal/mol]       1.17132818 [kJ/mol]

  Total HF                        -10.22952638 [mEh]      -6.41912472 [kcal/mol]     -26.85761782 [kJ/mol]
  Total SAPT0                     -16.56116469 [mEh]     -10.39228774 [kcal/mol]     -43.48133191 [kJ/mol]

  Special recipe for scaled SAPT0 (see Manual):
    Electrostatics sSAPT0         -20.31148842 [mEh]     -12.74565141 [kcal/mol]     -53.32780550 [kJ/mol]
    Exchange sSAPT0                16.41726250 [mEh]      10.30198775 [kcal/mol]      43.10351675 [kJ/mol]
    Induction sSAPT0               -6.27301096 [mEh]      -3.93637381 [kcal/mol]     -16.46978802 [kJ/mol]
    Dispersion sSAPT0              -6.31336683 [mEh]      -3.96169750 [kcal/mol]     -16.57574233 [kJ/mol]
  Total sSAPT0                    -16.48060372 [mEh]     -10.34173497 [kcal/mol]     -43.26981910 [kJ/mol]
  --------------------------------------------------------------------------------------------------------

*** Psi4 exiting successfully. Buy a developer a beer!
