                               Psi4 1.3.2 release

  ==> Input File <==

--------------------------------------------------------------------------
# Any line starting with the # character is a comment line
#! Sample  computation

memory 22 gb

molecule Dimer {
0 1
 C -2.666553   -0.030556   -0.000201
 C -1.158105   -0.099469   -0.000024
 O -0.566314   -1.176851   -0.000026
 N -0.505913    1.088191    0.000577
 H -3.052299    0.986310   -0.001221
 H -3.034353   -0.557376   -0.878094
 H -3.034407   -0.555529    0.878792
 H  0.508731    1.095438    0.000157
 H -1.010911    1.954026   -0.000574

 --
0 1
 C  2.604824   -0.557749    0.000171
 O  2.457624    0.653515   -0.000427
 H  3.613106   -0.994808    0.000310
 H  1.740052   -1.232065    0.000532

units angstrom

no_reorient
symmetry c1
}

set globals{
  basis jun-cc-pvtz
}

energy('sapt0')

--------------------------------------------------------------------------

  //              Dimer HF             //
    Molecular point group: c1
  Charge       = 0
  Multiplicity = 1
  Basis Set: JUN-CC-PVTZ
    Blend: JUN-CC-PVTZ
  Basis Set: (JUN-CC-PVTZ AUX)
    Blend: JUN-CC-PVTZ-JKFIT
  @DF-RHF Final Energy:  -321.98351231821221
    Total Energy =                       -321.9835123182122061
  //            Monomer A HF           //
    Molecular point group: c1
  Multiplicity = 1
  Basis Set: JUN-CC-PVTZ
    Blend: JUN-CC-PVTZ
  Basis Set: (JUN-CC-PVTZ AUX)
    Blend: JUN-CC-PVTZ-JKFIT
  @DF-RHF Final Energy:  -208.06151899765337
    Total Energy =                       -208.0615189976533657
  //            Monomer B HF           //
    Molecular point group: c1

    Geometry (in Angstrom), charge = 0, multiplicity = 1:

       Center              X                  Y                   Z               Mass
    ------------   -----------------  -----------------  -----------------  -----------------
      Gh(C)          -2.714005132852    -0.022868642463    -0.000201980492    12.000000000000
      Gh(C)          -1.205557132852    -0.091781642463    -0.000024980492    12.000000000000
      Gh(O)          -0.613766132852    -1.169163642463    -0.000026980492    15.994914619570
      Gh(N)          -0.553365132852     1.095878357537     0.000576019508    14.003074004430
      Gh(H)          -3.099751132852     0.993997357537    -0.001221980492     1.007825032230
      Gh(H)          -3.081805132852    -0.549688642463    -0.878094980492     1.007825032230
      Gh(H)          -3.081859132852    -0.547841642463     0.878791019508     1.007825032230
      Gh(H)           0.461278867148     1.103125357537     0.000156019508     1.007825032230
      Gh(H)          -1.058363132852     1.961713357537    -0.000574980492     1.007825032230
         C            2.557371867148    -0.550061642463     0.000170019508    12.000000000000
         O            2.410171867148     0.661202357537    -0.000427980492    15.994914619570
         H            3.565653867148    -0.987120642463     0.000309019508     1.007825032230
         H            1.692599867148    -1.224377642463     0.000531019508     1.007825032230

  Charge       = 0
  Multiplicity = 1
  Basis Set: JUN-CC-PVTZ
    Blend: JUN-CC-PVTZ
  Basis Set: (JUN-CC-PVTZ AUX)
    Blend: JUN-CC-PVTZ-JKFIT

    Orbital Energies [Eh]
    ---------------------

    Doubly Occupied:

       1A    -20.578756     2A    -11.343859     3A     -1.397430
       4A     -0.873269     5A     -0.696065     6A     -0.647009
       7A     -0.530726     8A     -0.446011

  @DF-RHF Final Energy:  -113.91195836076147

   => Energetics <=

    Nuclear Repulsion Energy =             31.0833632847495593
    One-Electron Energy =                -216.9643905231913550
    Two-Electron Energy =                  71.9690688776803142
    Total Energy =                       -113.9119583607614743

  Dipole Moment: [D]
     X:     0.3498      Y:    -2.9061      Z:     0.0014     Total:     2.9271

    SAPT Results
  --------------------------------------------------------------------------------------------------------
    Electrostatics                -20.24074229 [mEh]     -12.70125754 [kcal/mol]     -53.14206156 [kJ/mol]
      Elst10,r                    -20.24074229 [mEh]     -12.70125754 [kcal/mol]     -53.14206156 [kJ/mol]

    Exchange                       16.46638298 [mEh]      10.33281132 [kcal/mol]      43.23248255 [kJ/mol]
      Exch10                       16.46638298 [mEh]      10.33281132 [kcal/mol]      43.23248255 [kJ/mol]
      Exch10(S^2)                  16.38686495 [mEh]      10.28291300 [kcal/mol]      43.02370799 [kJ/mol]

    Induction                      -6.26060049 [mEh]      -3.92858612 [kcal/mol]     -16.43720431 [kJ/mol]
      Ind20,r                      -7.89962214 [mEh]      -4.95708773 [kcal/mol]     -20.74045506 [kJ/mol]
      Exch-Ind20,r                  4.06469876 [mEh]       2.55063698 [kcal/mol]      10.67186512 [kJ/mol]
      delta HF,r (2)               -2.42567711 [mEh]      -1.52213537 [kcal/mol]      -6.36861437 [kJ/mol]

    Dispersion                     -6.44542122 [mEh]      -4.04456288 [kcal/mol]     -16.92245108 [kJ/mol]
      Disp20                       -7.66996098 [mEh]      -4.81297318 [kcal/mol]     -20.13747978 [kJ/mol]
      Exch-Disp20                   1.22453976 [mEh]       0.76841030 [kcal/mol]       3.21502870 [kJ/mol]
      Disp20 (SS)                  -3.83498049 [mEh]      -2.40648659 [kcal/mol]     -10.06873989 [kJ/mol]
      Disp20 (OS)                  -3.83498049 [mEh]      -2.40648659 [kcal/mol]     -10.06873989 [kJ/mol]
      Exch-Disp20 (SS)              0.76999541 [mEh]       0.48317941 [kcal/mol]       2.02162266 [kJ/mol]
      Exch-Disp20 (OS)              0.45454436 [mEh]       0.28523089 [kcal/mol]       1.19340604 [kJ/mol]

  Total HF                        -10.03495980 [mEh]      -6.29703234 [kcal/mol]     -26.34678332 [kJ/mol]
  Total SAPT0                     -16.48038102 [mEh]     -10.34159522 [kcal/mol]     -43.26923440 [kJ/mol]

  Special recipe for scaled SAPT0 (see Manual):
    Electrostatics sSAPT0         -20.24074229 [mEh]     -12.70125754 [kcal/mol]     -53.14206156 [kJ/mol]
    Exchange sSAPT0                16.46638298 [mEh]      10.33281132 [kcal/mol]      43.23248255 [kJ/mol]
    Induction sSAPT0               -6.20114046 [mEh]      -3.89127439 [kcal/mol]     -16.28109204 [kJ/mol]
    Dispersion sSAPT0              -6.42750817 [mEh]      -4.03332227 [kcal/mol]     -16.87542036 [kJ/mol]
  Total sSAPT0                    -16.40300794 [mEh]     -10.29304288 [kcal/mol]     -43.06609140 [kJ/mol]
  --------------------------------------------------------------------------------------------------------

*** Psi4 exiting successfully. Buy a developer a beer!
