                               Psi4 1.3.2 release

  ==> Input File <==

--------------------------------------------------------------------------
# Any line starting with the # character is a comment line
#! Sample  computation

memory 22 gb

molecule Dimer {
0 1
 C  2.127950    0.493686   -0.226316
 C  0.646859    0.191169   -0.108268
 O  0.206081   -0.953279   -0.197654
 N -0.157722    1.265842    0.077173
 H -1.163363    1.135259    0.104041
 H  0.227063    2.189710    0.140589
 C  2.983271   -0.655971    0.283997
 H  2.721891   -1.575125   -0.234257
 H  4.040170   -0.448264    0.125419
 H  2.820000   -0.815818    1.348782
 H  2.328601    0.669596   -1.286134
 H  2.361672    1.421683    0.298059

 --
0 1
 C  -3.017561   -0.786596    0.002537
 O  -3.037319    0.427964    0.116582
 H  -3.955567   -1.359084   -0.008946
 H  -2.069630   -1.330052   -0.090890

units angstrom

no_reorient
symmetry c1
}

set globals{
  basis jun-cc-pvtz
}

energy('sapt0')

--------------------------------------------------------------------------

  //              Dimer HF             //
    Molecular point group: c1
  Charge       = 0
  Multiplicity = 1
  Basis Set: JUN-CC-PVTZ
    Blend: JUN-CC-PVTZ
  Basis Set: (JUN-CC-PVTZ AUX)
    Blend: JUN-CC-PVTZ-JKFIT
  @DF-RHF Final Energy:  -361.03112190374264
    Total Energy =                       -361.0311219037426440
  //            Monomer A HF           //
    Molecular point group: c1
  Multiplicity = 1
  Basis Set: JUN-CC-PVTZ
    Blend: JUN-CC-PVTZ
  Basis Set: (JUN-CC-PVTZ AUX)
    Blend: JUN-CC-PVTZ-JKFIT
  @DF-RHF Final Energy:  -247.10935123650660
    Total Energy =                       -247.1093512365065976
  //            Monomer B HF           //
    Molecular point group: c1

    Geometry (in Angstrom), charge = 0, multiplicity = 1:

       Center              X                  Y                   Z               Mass
    ------------   -----------------  -----------------  -----------------  -----------------
      Gh(C)           2.198195454748     0.492543066958    -0.222503648966    12.000000000000
      Gh(C)           0.717104454748     0.190026066958    -0.104455648966    12.000000000000
      Gh(O)           0.276326454748    -0.954421933042    -0.193841648966    15.994914619570
      Gh(N)          -0.087476545252     1.264699066958     0.080985351034    14.003074004430
      Gh(H)          -1.093117545252     1.134116066958     0.107853351034     1.007825032230
      Gh(H)           0.297308454748     2.188567066958     0.144401351034     1.007825032230
      Gh(C)           3.053516454748    -0.657113933042     0.287809351034    12.000000000000
      Gh(H)           2.792136454748    -1.576267933042    -0.230444648966     1.007825032230
      Gh(H)           4.110415454748    -0.449406933042     0.129231351034     1.007825032230
      Gh(H)           2.890245454748    -0.816960933042     1.352594351034     1.007825032230
      Gh(H)           2.398846454748     0.668453066958    -1.282321648966     1.007825032230
      Gh(H)           2.431917454748     1.420540066958     0.301871351034     1.007825032230
         C           -2.947315545252    -0.787738933042     0.006349351034    12.000000000000
         O           -2.967073545252     0.426821066958     0.120394351034    15.994914619570
         H           -3.885321545252    -1.360226933042    -0.005133648966     1.007825032230
         H           -1.999384545252    -1.331194933042    -0.087077648966     1.007825032230

  Charge       = 0
  Multiplicity = 1
  Basis Set: JUN-CC-PVTZ
    Blend: JUN-CC-PVTZ
  Basis Set: (JUN-CC-PVTZ AUX)
    Blend: JUN-CC-PVTZ-JKFIT

    Orbital Energies [Eh]
    ---------------------

    Doubly Occupied:

       1A    -20.578754     2A    -11.343849     3A     -1.397502
       4A     -0.873247     5A     -0.696054     6A     -0.647049
       7A     -0.530776     8A     -0.445993

  @DF-RHF Final Energy:  -113.91197603987176

   => Energetics <=

    Nuclear Repulsion Energy =             31.0850423591020046
    One-Electron Energy =                -216.9675869518073910
    Two-Electron Energy =                  71.9705685528336261
    Total Energy =                       -113.9119760398717602

  Dipole Moment: [D]
     X:     0.0507      Y:    -2.9132      Z:    -0.2739     Total:     2.9265

    SAPT Results
  --------------------------------------------------------------------------------------------------------
    Electrostatics                -19.93076202 [mEh]     -12.50674199 [kcal/mol]     -52.32820847 [kJ/mol]
      Elst10,r                    -19.93076202 [mEh]     -12.50674199 [kcal/mol]     -52.32820847 [kJ/mol]

    Exchange                       16.27725854 [mEh]      10.21413394 [kcal/mol]      42.73593641 [kJ/mol]
      Exch10                       16.27725854 [mEh]      10.21413394 [kcal/mol]      42.73593641 [kJ/mol]
      Exch10(S^2)                  16.19972237 [mEh]      10.16547926 [kcal/mol]      42.53236523 [kJ/mol]

    Induction                      -6.14112389 [mEh]      -3.85361342 [kcal/mol]     -16.12351854 [kJ/mol]
      Ind20,r                      -7.77017273 [mEh]      -4.87585700 [kcal/mol]     -20.40058569 [kJ/mol]
      Exch-Ind20,r                  4.01704117 [mEh]       2.52073139 [kcal/mol]      10.54674015 [kJ/mol]
      delta HF,r (2)               -2.38799233 [mEh]      -1.49848781 [kcal/mol]      -6.26967300 [kJ/mol]

    Dispersion                     -6.45751520 [mEh]      -4.05215196 [kcal/mol]     -16.95420381 [kJ/mol]
      Disp20                       -7.67627559 [mEh]      -4.81693566 [kcal/mol]     -20.15405878 [kJ/mol]
      Exch-Disp20                   1.21876039 [mEh]       0.76478369 [kcal/mol]       3.19985497 [kJ/mol]
      Disp20 (SS)                  -3.83813779 [mEh]      -2.40846783 [kcal/mol]     -10.07702939 [kJ/mol]
      Disp20 (OS)                  -3.83813779 [mEh]      -2.40846783 [kcal/mol]     -10.07702939 [kJ/mol]
      Exch-Disp20 (SS)              0.76664501 [mEh]       0.48107701 [kcal/mol]       2.01282620 [kJ/mol]
      Exch-Disp20 (OS)              0.45211538 [mEh]       0.28370668 [kcal/mol]       1.18702877 [kJ/mol]

  Total HF                         -9.79462736 [mEh]      -6.14622146 [kcal/mol]     -25.71579060 [kJ/mol]
  Total SAPT0                     -16.25214256 [mEh]     -10.19837343 [kcal/mol]     -42.66999441 [kJ/mol]

  Special recipe for scaled SAPT0 (see Manual):
    Electrostatics sSAPT0         -19.93076202 [mEh]     -12.50674199 [kcal/mol]     -52.32820847 [kJ/mol]
    Exchange sSAPT0                16.27725854 [mEh]      10.21413394 [kcal/mol]      42.73593641 [kJ/mol]
    Induction sSAPT0               -6.08316750 [mEh]      -3.81724524 [kcal/mol]     -15.97135407 [kJ/mol]
    Dispersion sSAPT0              -6.43993137 [mEh]      -4.04111795 [kcal/mol]     -16.90803748 [kJ/mol]
  Total sSAPT0                    -16.17660235 [mEh]     -10.15097123 [kcal/mol]     -42.47166362 [kJ/mol]
  --------------------------------------------------------------------------------------------------------

*** Psi4 exiting successfully. Buy a developer a beer!
