                               Psi4 1.3.2 release

  ==> Input File <==

--------------------------------------------------------------------------
# Any line starting with the # character is a comment line
#! Sample  computation

memory 22 gb

molecule Dimer {
0 1
 C -2.887823    0.189782   -0.000379
 O -2.262614    1.242603    0.000121
 N -2.332931   -1.040046    0.000071
 H -2.921987   -1.852286    0.000102
 H -1.320793   -1.143596    0.000444
 H -3.987391    0.166949   -0.000220

 --
0 1
 H  0.089264    1.013462    0.000226
 C  2.302742    0.775897    0.000027
 C  0.895614    0.263377    0.000128
 O  0.612746   -0.927236    0.000093
 H  2.396021    1.436148   -0.868102
 C  3.357973   -0.315014   -0.000156
 H  4.356557    0.117302   -0.000218
 H  3.255364   -0.950500    0.877242
 H  3.255198   -0.950363   -0.877635
 H  2.396188    1.436019    0.868236

units angstrom

no_reorient
symmetry c1
}

set globals{
  basis jun-cc-pvtz
}

energy('sapt0')

--------------------------------------------------------------------------

  //              Dimer HF             //
    Molecular point group: c1
  Charge       = 0
  Multiplicity = 1
  Basis Set: JUN-CC-PVTZ
    Blend: JUN-CC-PVTZ
  Basis Set: (JUN-CC-PVTZ AUX)
    Blend: JUN-CC-PVTZ-JKFIT
  @DF-RHF Final Energy:  -361.03710128377827
    Total Energy =                       -361.0371012837782700
  //            Monomer A HF           //
    Molecular point group: c1
  Multiplicity = 1
  Basis Set: JUN-CC-PVTZ
    Blend: JUN-CC-PVTZ
  Basis Set: (JUN-CC-PVTZ AUX)
    Blend: JUN-CC-PVTZ-JKFIT
  @DF-RHF Final Energy:  -169.00307300397941
    Total Energy =                       -169.0030730039794093
  //            Monomer B HF           //
    Molecular point group: c1

    Geometry (in Angstrom), charge = 0, multiplicity = 1:

       Center              X                  Y                   Z               Mass
    ------------   -----------------  -----------------  -----------------  -----------------
      Gh(C)          -2.815456053839     0.182831143658    -0.000378347167    12.000000000000
      Gh(O)          -2.190247053839     1.235652143658     0.000121652833    15.994914619570
      Gh(N)          -2.260564053839    -1.046996856342     0.000071652833    14.003074004430
      Gh(H)          -2.849620053839    -1.859236856342     0.000102652833     1.007825032230
      Gh(H)          -1.248426053839    -1.150546856342     0.000444652833     1.007825032230
      Gh(H)          -3.915024053839     0.159998143658    -0.000219347167     1.007825032230
         H            0.161630946161     1.006511143658     0.000226652833     1.007825032230
         C            2.375108946161     0.768946143658     0.000027652833    12.000000000000
         C            0.967980946161     0.256426143658     0.000128652833    12.000000000000
         O            0.685112946161    -0.934186856342     0.000093652833    15.994914619570
         H            2.468387946161     1.429197143658    -0.868101347167     1.007825032230
         C            3.430339946161    -0.321964856342    -0.000155347167    12.000000000000
         H            4.428923946161     0.110351143658    -0.000217347167     1.007825032230
         H            3.327730946161    -0.957450856342     0.877242652833     1.007825032230
         H            3.327564946161    -0.957313856342    -0.877634347167     1.007825032230
         H            2.468554946161     1.429068143658     0.868236652833     1.007825032230

  Charge       = 0
  Multiplicity = 1
  Basis Set: JUN-CC-PVTZ
    Blend: JUN-CC-PVTZ
  Basis Set: (JUN-CC-PVTZ AUX)
    Blend: JUN-CC-PVTZ-JKFIT

    Orbital Energies [Eh]
    ---------------------

    Doubly Occupied:

       1A    -20.556947     2A    -11.333234     3A    -11.245567
       4A    -11.221194     5A     -1.383420     6A     -1.064548
       7A     -0.913816     8A     -0.775752     9A     -0.681317
      10A     -0.635774    11A     -0.624945    12A     -0.541928
      13A     -0.525910    14A     -0.520873    15A     -0.488919
      16A     -0.424766

  @DF-RHF Final Energy:  -192.02346395611380

   => Energetics <=

    Nuclear Repulsion Energy =            118.6814395650834655
    One-Electron Energy =                -495.5319864736511590
    Two-Electron Energy =                 184.8270829524539067
    Total Energy =                       -192.0234639561138010

  Dipole Moment: [D]
     X:     1.2985      Y:     2.9239      Z:     0.0000     Total:     3.1993

    SAPT Results
  --------------------------------------------------------------------------------------------------------
    Electrostatics                -21.43495887 [mEh]     -13.45063976 [kcal/mol]     -56.27747676 [kJ/mol]
      Elst10,r                    -21.43495887 [mEh]     -13.45063976 [kcal/mol]     -56.27747676 [kJ/mol]

    Exchange                       17.88935636 [mEh]      11.22574059 [kcal/mol]      46.96849864 [kJ/mol]
      Exch10                       17.88935636 [mEh]      11.22574059 [kcal/mol]      46.96849864 [kJ/mol]
      Exch10(S^2)                  17.78358865 [mEh]      11.15937036 [kcal/mol]      46.69080558 [kJ/mol]

    Induction                      -7.01872117 [mEh]      -4.40431403 [kcal/mol]     -18.42764989 [kJ/mol]
      Ind20,r                      -8.72236178 [mEh]      -5.47336465 [kcal/mol]     -22.90055770 [kJ/mol]
      Exch-Ind20,r                  4.47854610 [mEh]       2.81033011 [kcal/mol]      11.75842116 [kJ/mol]
      delta HF,r (2)               -2.77490549 [mEh]      -1.74127948 [kcal/mol]      -7.28551336 [kJ/mol]

    Dispersion                     -6.87783015 [mEh]      -4.31590358 [kcal/mol]     -18.05774058 [kJ/mol]
      Disp20                       -8.21017414 [mEh]      -5.15196205 [kcal/mol]     -21.55580922 [kJ/mol]
      Exch-Disp20                   1.33234398 [mEh]       0.83605847 [kcal/mol]       3.49806865 [kJ/mol]
      Disp20 (SS)                  -4.10508707 [mEh]      -2.57598103 [kcal/mol]     -10.77790461 [kJ/mol]
      Disp20 (OS)                  -4.10508707 [mEh]      -2.57598103 [kcal/mol]     -10.77790461 [kJ/mol]
      Exch-Disp20 (SS)              0.83652961 [mEh]       0.52493025 [kcal/mol]       2.19630818 [kJ/mol]
      Exch-Disp20 (OS)              0.49581438 [mEh]       0.31112822 [kcal/mol]       1.30176047 [kJ/mol]

  Total HF                        -10.56432369 [mEh]      -6.62921320 [kcal/mol]     -27.73662801 [kJ/mol]
  Total SAPT0                     -17.44215384 [mEh]     -10.94511678 [kcal/mol]     -45.79436859 [kJ/mol]

  Special recipe for scaled SAPT0 (see Manual):
    Electrostatics sSAPT0         -21.43495887 [mEh]     -13.45063976 [kcal/mol]     -56.27747676 [kJ/mol]
    Exchange sSAPT0                17.88935636 [mEh]      11.22574059 [kcal/mol]      46.96849864 [kJ/mol]
    Induction sSAPT0               -6.93833666 [mEh]      -4.35387199 [kcal/mol]     -18.21660039 [kJ/mol]
    Dispersion sSAPT0              -6.85391618 [mEh]      -4.30089734 [kcal/mol]     -17.99495446 [kJ/mol]
  Total sSAPT0                    -17.33785536 [mEh]     -10.87966849 [kcal/mol]     -45.52053297 [kJ/mol]
  --------------------------------------------------------------------------------------------------------

*** Psi4 exiting successfully. Buy a developer a beer!
