                               Psi4 1.3.2 release

  ==> Input File <==

--------------------------------------------------------------------------
# Any line starting with the # character is a comment line
#! Sample  computation

memory 22 gb

molecule Dimer {
0 1
 C  2.801404    0.350511    0.041916
 C  1.286241    0.382096   -0.006910
 O  0.633764   -0.425946   -0.663529
 N  0.698849    1.365644    0.722782
 H -0.294143    1.524455    0.610766
 H  1.258760    2.067025    1.171485
 C  3.347176   -1.054325   -0.161503
 H  2.974213   -1.469913   -1.094246
 H  4.435491   -1.043201   -0.189265
 H  3.030071   -1.712217    0.646317
 H  3.155452    1.011114   -0.753790
 H  3.149276    0.776372    0.984575

 --
0 1
 H  -2.459087    0.384171   -1.979760
 C  -2.405876   -1.026091   -0.283216
 C  -2.316196    0.339128   -0.886088
 O  -2.114956    1.367539   -0.261985
 H  -3.385738   -1.427862   -0.563392
 C  -2.188215   -1.054749    1.217703
 H  -2.310872   -2.066028    1.601250
 H  -1.182164   -0.717170    1.459027
 H  -2.895936   -0.403188    1.727911
 H  -1.664931   -1.635223   -0.807649

units angstrom

no_reorient
symmetry c1
}

set globals{
  basis jun-cc-pvtz
}

energy('sapt0')

--------------------------------------------------------------------------

  //              Dimer HF             //
    Molecular point group: c1
  Charge       = 0
  Multiplicity = 1
  Basis Set: JUN-CC-PVTZ
    Blend: JUN-CC-PVTZ
  Basis Set: (JUN-CC-PVTZ AUX)
    Blend: JUN-CC-PVTZ-JKFIT
  @DF-RHF Final Energy:  -439.14073767166997
    Total Energy =                       -439.1407376716699673
  //            Monomer A HF           //
    Molecular point group: c1
  Multiplicity = 1
  Basis Set: JUN-CC-PVTZ
    Blend: JUN-CC-PVTZ
  Basis Set: (JUN-CC-PVTZ AUX)
    Blend: JUN-CC-PVTZ-JKFIT
  @DF-RHF Final Energy:  -247.10958456280605
    Total Energy =                       -247.1095845628060488
  //            Monomer B HF           //
    Molecular point group: c1

    Geometry (in Angstrom), charge = 0, multiplicity = 1:

       Center              X                  Y                   Z               Mass
    ------------   -----------------  -----------------  -----------------  -----------------
      Gh(C)           2.830168632911     0.314855689372     0.063154711265    12.000000000000
      Gh(C)           1.315005632911     0.346440689372     0.014328711265    12.000000000000
      Gh(O)           0.662528632911    -0.461601310628    -0.642290288735    15.994914619570
      Gh(N)           0.727613632911     1.329988689372     0.744020711265    14.003074004430
      Gh(H)          -0.265378367089     1.488799689372     0.632004711265     1.007825032230
      Gh(H)           1.287524632911     2.031369689372     1.192723711265     1.007825032230
      Gh(C)           3.375940632911    -1.089980310628    -0.140264288735    12.000000000000
      Gh(H)           3.002977632911    -1.505568310628    -1.073007288735     1.007825032230
      Gh(H)           4.464255632911    -1.078856310628    -0.168026288735     1.007825032230
      Gh(H)           3.058835632911    -1.747872310628     0.667555711265     1.007825032230
      Gh(H)           3.184216632911     0.975458689372    -0.732551288735     1.007825032230
      Gh(H)           3.178040632911     0.740716689372     1.005813711265     1.007825032230
         H           -2.430322367089     0.348515689372    -1.958521288735     1.007825032230
         C           -2.377111367089    -1.061746310628    -0.261977288735    12.000000000000
         C           -2.287431367089     0.303472689372    -0.864849288735    12.000000000000
         O           -2.086191367089     1.331883689372    -0.240746288735    15.994914619570
         H           -3.356973367089    -1.463517310628    -0.542153288735     1.007825032230
         C           -2.159450367089    -1.090404310628     1.238941711265    12.000000000000
         H           -2.282107367089    -2.101683310628     1.622488711265     1.007825032230
         H           -1.153399367089    -0.752825310628     1.480265711265     1.007825032230
         H           -2.867171367089    -0.438843310628     1.749149711265     1.007825032230
         H           -1.636166367089    -1.670878310628    -0.786410288735     1.007825032230

  Charge       = 0
  Multiplicity = 1
  Basis Set: JUN-CC-PVTZ
    Blend: JUN-CC-PVTZ
  Basis Set: (JUN-CC-PVTZ AUX)
    Blend: JUN-CC-PVTZ-JKFIT

    Orbital Energies [Eh]
    ---------------------

    Doubly Occupied:

       1A    -20.557423     2A    -11.332642     3A    -11.245606
       4A    -11.221719     5A     -1.385893     6A     -1.066443
       7A     -0.914621     8A     -0.773827     9A     -0.680698
      10A     -0.638659    11A     -0.626395    12A     -0.542478
      13A     -0.528322    14A     -0.520146    15A     -0.491027
      16A     -0.423538

  @DF-RHF Final Energy:  -192.02396931605981

   => Energetics <=

    Nuclear Repulsion Energy =            118.6408325548878508
    One-Electron Energy =                -495.4307330108407541
    Two-Electron Energy =                 184.7659311398930697
    Total Energy =                       -192.0239693160598051

  Dipole Moment: [D]
     X:    -0.4966      Y:    -2.9697      Z:    -1.1007     Total:     3.2059

    SAPT Results
  --------------------------------------------------------------------------------------------------------
    Electrostatics                -18.56733157 [mEh]     -11.65117646 [kcal/mol]     -48.74852232 [kJ/mol]
      Elst10,r                    -18.56733157 [mEh]     -11.65117646 [kcal/mol]     -48.74852232 [kJ/mol]

    Exchange                       16.99082674 [mEh]      10.66190475 [kcal/mol]      44.60940947 [kJ/mol]
      Exch10                       16.99082674 [mEh]      10.66190475 [kcal/mol]      44.60940947 [kJ/mol]
      Exch10(S^2)                  16.88553794 [mEh]      10.59583503 [kcal/mol]      44.33297376 [kJ/mol]

    Induction                      -5.60728798 [mEh]      -3.51862633 [kcal/mol]     -14.72193255 [kJ/mol]
      Ind20,r                      -8.55581556 [mEh]      -5.36885532 [kcal/mol]     -22.46329066 [kJ/mol]
      Exch-Ind20,r                  4.97677422 [mEh]       3.12297297 [kcal/mol]      13.06651891 [kJ/mol]
      delta HF,r (2)               -2.02824663 [mEh]      -1.27274398 [kcal/mol]      -5.32516081 [kJ/mol]

    Dispersion                    -10.08619433 [mEh]      -6.32918250 [kcal/mol]     -26.48129956 [kJ/mol]
      Disp20                      -11.67269502 [mEh]      -7.32472671 [kcal/mol]     -30.64665655 [kJ/mol]
      Exch-Disp20                   1.58650069 [mEh]       0.99554421 [kcal/mol]       4.16535699 [kJ/mol]
      Disp20 (SS)                  -5.83634751 [mEh]      -3.66236335 [kcal/mol]     -15.32332827 [kJ/mol]
      Disp20 (OS)                  -5.83634751 [mEh]      -3.66236335 [kcal/mol]     -15.32332827 [kJ/mol]
      Exch-Disp20 (SS)              0.99052880 [mEh]       0.62156621 [kcal/mol]       2.60063300 [kJ/mol]
      Exch-Disp20 (OS)              0.59597189 [mEh]       0.37397801 [kcal/mol]       1.56472399 [kJ/mol]

  Total HF                         -7.18379280 [mEh]      -4.50789804 [kcal/mol]     -18.86104541 [kJ/mol]
  Total SAPT0                     -17.26998713 [mEh]     -10.83708054 [kcal/mol]     -45.34234497 [kJ/mol]

  Special recipe for scaled SAPT0 (see Manual):
    Electrostatics sSAPT0         -18.56733157 [mEh]     -11.65117646 [kcal/mol]     -48.74852232 [kJ/mol]
    Exchange sSAPT0                16.99082674 [mEh]      10.66190475 [kcal/mol]      44.60940947 [kJ/mol]
    Induction sSAPT0               -5.51360910 [mEh]      -3.45984195 [kcal/mol]     -14.47597870 [kJ/mol]
    Dispersion sSAPT0             -10.05633129 [mEh]      -6.31044316 [kcal/mol]     -26.40289416 [kJ/mol]
  Total sSAPT0                    -17.14644522 [mEh]     -10.75955682 [kcal/mol]     -45.01798572 [kJ/mol]
  --------------------------------------------------------------------------------------------------------

*** Psi4 exiting successfully. Buy a developer a beer!
