                               Psi4 1.3.2 release

  ==> Input File <==

--------------------------------------------------------------------------
# Any line starting with the # character is a comment line
#! Sample  computation

memory 22 gb

molecule Dimer {
0 1
 C -3.189708   -0.717907    0.135526
 C -1.816684   -0.121549   -0.060841
 O -0.917517   -0.748696   -0.616815
 N -1.642569    1.138162    0.410005
 H -3.910371   -0.012926    0.543800
 H -3.545506   -1.087835   -0.823024
 H -3.100788   -1.569386    0.807783
 H -0.722233    1.554714    0.366227
 H -2.375927    1.609640    0.904448

 --
0 1
 H  1.230740    0.813540   -1.783218
 C  2.259614   -0.640736   -0.479882
 C  1.545377    0.647377   -0.739773
 O  1.313693    1.490957    0.111269
 H  1.629603   -1.424424   -0.907394
 C  2.550186   -0.887243    0.988882
 H  3.074833   -1.831365    1.123121
 H  3.159876   -0.088046    1.406109
 H  1.620501   -0.924878    1.554109
 H  3.175127   -0.623908   -1.081106

units angstrom

no_reorient
symmetry c1
}

set globals{
  basis jun-cc-pvtz
}

energy('sapt0')

--------------------------------------------------------------------------

  //              Dimer HF             //
    Molecular point group: c1
  Charge       = 0
  Multiplicity = 1
  Basis Set: JUN-CC-PVTZ
    Blend: JUN-CC-PVTZ
  Basis Set: (JUN-CC-PVTZ AUX)
    Blend: JUN-CC-PVTZ-JKFIT
  @DF-RHF Final Energy:  -400.09399835816248
    Total Energy =                       -400.0939983581624801
  //            Monomer A HF           //
    Molecular point group: c1
  Multiplicity = 1
  Basis Set: JUN-CC-PVTZ
    Blend: JUN-CC-PVTZ
  Basis Set: (JUN-CC-PVTZ AUX)
    Blend: JUN-CC-PVTZ-JKFIT
  @DF-RHF Final Energy:  -208.06169045357294
    Total Energy =                       -208.0616904535729361
  //            Monomer B HF           //
    Molecular point group: c1

    Geometry (in Angstrom), charge = 0, multiplicity = 1:

       Center              X                  Y                   Z               Mass
    ------------   -----------------  -----------------  -----------------  -----------------
      Gh(C)          -3.187648762723    -0.748284325831     0.153381624175    12.000000000000
      Gh(C)          -1.814624762723    -0.151926325831    -0.042985375825    12.000000000000
      Gh(O)          -0.915457762723    -0.779073325831    -0.598959375825    15.994914619570
      Gh(N)          -1.640509762723     1.107784674169     0.427860624175    14.003074004430
      Gh(H)          -3.908311762723    -0.043303325831     0.561655624175     1.007825032230
      Gh(H)          -3.543446762723    -1.118212325831    -0.805168375825     1.007825032230
      Gh(H)          -3.098728762723    -1.599763325831     0.825638624175     1.007825032230
      Gh(H)          -0.720173762723     1.524336674169     0.384082624175     1.007825032230
      Gh(H)          -2.373867762723     1.579262674169     0.922303624175     1.007825032230
         H            1.232799237277     0.783162674169    -1.765362375825     1.007825032230
         C            2.261673237277    -0.671113325831    -0.462026375825    12.000000000000
         C            1.547436237277     0.616999674169    -0.721917375825    12.000000000000
         O            1.315752237277     1.460579674169     0.129124624175    15.994914619570
         H            1.631662237277    -1.454801325831    -0.889538375825     1.007825032230
         C            2.552245237277    -0.917620325831     1.006737624175    12.000000000000
         H            3.076892237277    -1.861742325831     1.140976624175     1.007825032230
         H            3.161935237277    -0.118423325831     1.423964624175     1.007825032230
         H            1.622560237277    -0.955255325831     1.571964624175     1.007825032230
         H            3.177186237277    -0.654285325831    -1.063250375825     1.007825032230

  Charge       = 0
  Multiplicity = 1
  Basis Set: JUN-CC-PVTZ
    Blend: JUN-CC-PVTZ
  Basis Set: (JUN-CC-PVTZ AUX)
    Blend: JUN-CC-PVTZ-JKFIT

    Orbital Energies [Eh]
    ---------------------

    Doubly Occupied:

       1A    -20.557480     2A    -11.332698     3A    -11.245129
       4A    -11.221238     5A     -1.385574     6A     -1.065873
       7A     -0.914179     8A     -0.774452     9A     -0.681030
      10A     -0.638200    11A     -0.626071    12A     -0.541868
      13A     -0.527324    14A     -0.520278    15A     -0.490768
      16A     -0.423858

  @DF-RHF Final Energy:  -192.02375776109068

   => Energetics <=

    Nuclear Repulsion Energy =            118.7624576142301578
    One-Electron Energy =                -495.6803954079949790
    Two-Electron Energy =                 184.8941800326741713
    Total Energy =                       -192.0237577610906783

  Dipole Moment: [D]
     X:     0.8642      Y:    -2.5015      Z:    -1.7830     Total:     3.1911

    SAPT Results
  --------------------------------------------------------------------------------------------------------
    Electrostatics                -19.93270152 [mEh]     -12.50795904 [kcal/mol]     -52.33330064 [kJ/mol]
      Elst10,r                    -19.93270152 [mEh]     -12.50795904 [kcal/mol]     -52.33330064 [kJ/mol]

    Exchange                       17.46140591 [mEh]      10.95719764 [kcal/mol]      45.84491491 [kJ/mol]
      Exch10                       17.46140591 [mEh]      10.95719764 [kcal/mol]      45.84491491 [kJ/mol]
      Exch10(S^2)                  17.33432243 [mEh]      10.87745155 [kcal/mol]      45.51125728 [kJ/mol]

    Induction                      -6.07884789 [mEh]      -3.81453464 [kcal/mol]     -15.96001293 [kJ/mol]
      Ind20,r                      -9.64754575 [mEh]      -6.05392636 [kcal/mol]     -25.32962789 [kJ/mol]
      Exch-Ind20,r                  5.75366344 [mEh]       3.61047832 [kcal/mol]      15.10624129 [kJ/mol]
      delta HF,r (2)               -2.18496558 [mEh]      -1.37108660 [kcal/mol]      -5.73662634 [kJ/mol]

    Dispersion                     -9.13232838 [mEh]      -5.73062258 [kcal/mol]     -23.97692487 [kJ/mol]
      Disp20                      -10.72533777 [mEh]      -6.73025106 [kcal/mol]     -28.15937044 [kJ/mol]
      Exch-Disp20                   1.59300939 [mEh]       0.99962848 [kcal/mol]       4.18244558 [kJ/mol]
      Disp20 (SS)                  -5.36266889 [mEh]      -3.36512553 [kcal/mol]     -14.07968522 [kJ/mol]
      Disp20 (OS)                  -5.36266889 [mEh]      -3.36512553 [kcal/mol]     -14.07968522 [kJ/mol]
      Exch-Disp20 (SS)              0.99727648 [mEh]       0.62580044 [kcal/mol]       2.61834903 [kJ/mol]
      Exch-Disp20 (OS)              0.59573291 [mEh]       0.37382805 [kcal/mol]       1.56409654 [kJ/mol]

  Total HF                         -8.55014350 [mEh]      -5.36529605 [kcal/mol]     -22.44839866 [kJ/mol]
  Total SAPT0                     -17.68247188 [mEh]     -11.09591863 [kcal/mol]     -46.42532353 [kJ/mol]

  Special recipe for scaled SAPT0 (see Manual):
    Electrostatics sSAPT0         -19.93270152 [mEh]     -12.50795904 [kcal/mol]     -52.33330064 [kJ/mol]
    Exchange sSAPT0                17.46140591 [mEh]      10.95719764 [kcal/mol]      45.84491491 [kJ/mol]
    Induction sSAPT0               -5.95137201 [mEh]      -3.73454232 [kcal/mol]     -15.62532507 [kJ/mol]
    Dispersion sSAPT0              -9.09703430 [mEh]      -5.70847521 [kcal/mol]     -23.88426027 [kJ/mol]
  Total sSAPT0                    -17.51970193 [mEh]     -10.99377894 [kcal/mol]     -45.99797107 [kJ/mol]
  --------------------------------------------------------------------------------------------------------

*** Psi4 exiting successfully. Buy a developer a beer!
