                               Psi4 1.3.2 release

  ==> Input File <==

--------------------------------------------------------------------------
# Any line starting with the # character is a comment line
#! Sample  computation

memory 22 gb

molecule Dimer {

0 1
 C    2.26336800    1.63905900    0.23410500
 C    1.92366600    0.55201100   -0.19483600
 C    1.51789100   -0.76753000   -0.66951700
 C    1.50124500   -1.80372700    0.45572500
 H    2.56466200    2.59062900    0.59663800
 H    0.52368500   -0.69906400   -1.11608000
 H    2.20110200   -1.08378200   -1.46002800
 H    1.19970400   -2.77556000    0.06747300
 H    2.48809500   -1.89681900    0.90628300
 H    0.79332800   -1.51464400    1.23059600

 --
0 1
 C    -2.26135700   -1.63900500   -0.23809800
 C    -1.92253700   -0.55258400    0.19310600
 C    -1.51787400    0.76631200    0.67049100
 C    -1.50355000    1.80515800   -0.45234500
 H    -2.56190000   -2.59005700   -0.60262800
 H    -2.20070400    1.07991100    1.46239300
 H    -0.52319500    0.69795000    1.11599800
 H    -1.20247000    2.77636800   -0.06217700
 H    -0.79637200    1.51853400   -1.22879900
 H    -2.49104800    1.89837500   -0.90145200

units angstrom

no_reorient
symmetry c1
}

set globals{
  basis jun-cc-pVTZ
  scf_type DF
  freeze_core True
}

energy('sapt0')

--------------------------------------------------------------------------

  //              Dimer HF             //
    Molecular point group: c1
  Charge       = 0
  Multiplicity = 1
  Basis Set: JUN-CC-PVTZ
    Blend: JUN-CC-PVTZ
  Basis Set: (JUN-CC-PVTZ AUX)
    Blend: JUN-CC-PVTZ-JKFIT
  @DF-RHF Final Energy:  -309.90754360614011
    Total Energy =                       -309.9075436061401092
  //            Monomer A HF           //
    Molecular point group: c1
  Multiplicity = 1
  Basis Set: JUN-CC-PVTZ
    Blend: JUN-CC-PVTZ
  Basis Set: (JUN-CC-PVTZ AUX)
    Blend: JUN-CC-PVTZ-JKFIT
  @DF-RHF Final Energy:  -154.95529923567349
    Total Energy =                       -154.9552992356734933
  //            Monomer B HF           //
    Molecular point group: c1

    Geometry (in Angstrom), charge = 0, multiplicity = 1:

       Center              X                  Y                   Z               Mass
    ------------   -----------------  -----------------  -----------------  -----------------
      Gh(C)           2.263321087172     1.639075805704     0.234180366896    12.000000000000
      Gh(C)           1.923619087172     0.552027805704    -0.194760633104    12.000000000000
      Gh(C)           1.517844087172    -0.767513194296    -0.669441633104    12.000000000000
      Gh(C)           1.501198087172    -1.803710194296     0.455800366896    12.000000000000
      Gh(H)           2.564615087172     2.590645805704     0.596713366896     1.007825032230
      Gh(H)           0.523638087172    -0.699047194296    -1.116004633104     1.007825032230
      Gh(H)           2.201055087172    -1.083765194296    -1.459952633104     1.007825032230
      Gh(H)           1.199657087172    -2.775543194296     0.067548366896     1.007825032230
      Gh(H)           2.488048087172    -1.896802194296     0.906358366896     1.007825032230
      Gh(H)           0.793281087172    -1.514627194296     1.230671366896     1.007825032230
         C           -2.261403912828    -1.638988194296    -0.238022633104    12.000000000000
         C           -1.922583912828    -0.552567194296     0.193181366896    12.000000000000
         C           -1.517920912828     0.766328805704     0.670566366896    12.000000000000
         C           -1.503596912828     1.805174805704    -0.452269633104    12.000000000000
         H           -2.561946912828    -2.590040194296    -0.602552633104     1.007825032230
         H           -2.200750912828     1.079927805704     1.462468366896     1.007825032230
         H           -0.523241912828     0.697966805704     1.116073366896     1.007825032230
         H           -1.202516912828     2.776384805704    -0.062101633104     1.007825032230
         H           -0.796418912828     1.518550805704    -1.228723633104     1.007825032230
         H           -2.491094912828     1.898391805704    -0.901376633104     1.007825032230

  Charge       = 0
  Multiplicity = 1
  Basis Set: JUN-CC-PVTZ
    Blend: JUN-CC-PVTZ
  Basis Set: (JUN-CC-PVTZ AUX)
    Blend: JUN-CC-PVTZ-JKFIT

    Orbital Energies [Eh]
    ---------------------

    Doubly Occupied:

       1A    -11.253383     2A    -11.236387     3A    -11.224837
       4A    -11.222325     5A     -1.081326     6A     -0.991015
       7A     -0.875611     8A     -0.717794     9A     -0.642412
      10A     -0.630822    11A     -0.552044    12A     -0.524729
      13A     -0.515774    14A     -0.380133    15A     -0.379948

  @DF-RHF Final Energy:  -154.95530033456612

   => Energetics <=

    Nuclear Repulsion Energy =            102.8725211964617614
    One-Electron Energy =                -411.1985651234068087
    Two-Electron Energy =                 153.3707435923789149
    Total Energy =                       -154.9553003345661182

  Dipole Moment: [D]
     X:     0.2214      Y:     0.8085      Z:     0.1695     Total:     0.8553

    SAPT Results
  --------------------------------------------------------------------------------------------------------
    Electrostatics                 -5.06444494 [mEh]      -3.17798718 [kcal/mol]     -13.29669835 [kJ/mol]
      Elst10,r                     -5.06444494 [mEh]      -3.17798718 [kcal/mol]     -13.29669835 [kJ/mol]

    Exchange                        9.41167920 [mEh]       5.90591786 [kcal/mol]      24.71036034 [kJ/mol]
      Exch10                        9.41167920 [mEh]       5.90591786 [kcal/mol]      24.71036034 [kJ/mol]
      Exch10(S^2)                   9.39146317 [mEh]       5.89323211 [kcal/mol]      24.65728316 [kJ/mol]

    Induction                      -1.29127017 [mEh]      -0.81028426 [kcal/mol]      -3.39022935 [kJ/mol]
      Ind20,r                      -2.72015605 [mEh]      -1.70692369 [kcal/mol]      -7.14176873 [kJ/mol]
      Exch-Ind20,r                  2.16860068 [mEh]       1.36081747 [kcal/mol]       5.69366030 [kJ/mol]
      delta HF,r (2)               -0.73971479 [mEh]      -0.46417804 [kcal/mol]      -1.94212092 [kJ/mol]

    Dispersion                     -9.40179168 [mEh]      -5.89971335 [kcal/mol]     -24.68440064 [kJ/mol]
      Disp20                      -10.51438015 [mEh]      -6.59787315 [kcal/mol]     -27.60550127 [kJ/mol]
      Exch-Disp20                   1.11258847 [mEh]       0.69815981 [kcal/mol]       2.92110063 [kJ/mol]
      Disp20 (SS)                  -5.25719007 [mEh]      -3.29893658 [kcal/mol]     -13.80275063 [kJ/mol]
      Disp20 (OS)                  -5.25719007 [mEh]      -3.29893658 [kcal/mol]     -13.80275063 [kJ/mol]
      Exch-Disp20 (SS)              0.72643837 [mEh]       0.45584696 [kcal/mol]       1.90726369 [kJ/mol]
      Exch-Disp20 (OS)              0.38615010 [mEh]       0.24231284 [kcal/mol]       1.01383694 [kJ/mol]

  Total HF                          3.05596410 [mEh]       1.91764642 [kcal/mol]       8.02343264 [kJ/mol]
  Total SAPT0                      -6.34582758 [mEh]      -3.98206692 [kcal/mol]     -16.66096801 [kJ/mol]

  Special recipe for scaled SAPT0 (see Manual):
    Electrostatics sSAPT0          -5.06444494 [mEh]      -3.17798718 [kcal/mol]     -13.29669835 [kJ/mol]
    Exchange sSAPT0                 9.41167920 [mEh]       5.90591786 [kcal/mol]      24.71036034 [kJ/mol]
    Induction sSAPT0               -1.27723563 [mEh]      -0.80147746 [kcal/mol]      -3.35338169 [kJ/mol]
    Dispersion sSAPT0              -9.39459134 [mEh]      -5.89519507 [kcal/mol]     -24.66549616 [kJ/mol]
  Total sSAPT0                     -6.32459270 [mEh]      -3.96874184 [kcal/mol]     -16.60521586 [kJ/mol]
  --------------------------------------------------------------------------------------------------------

*** Psi4 exiting successfully. Buy a developer a beer!
