                               Psi4 1.3.2 release

  ==> Input File <==

--------------------------------------------------------------------------
# Any line starting with the # character is a comment line
#! Sample  computation

memory 22 gb

molecule Dimer {

0 1
 C     3.36840900   -0.43975000    0.00770200
 C     2.27101900    0.48291900    0.51798900
 C     1.41885800    1.01694500   -0.63707700
 C     0.39801600    1.95794600   -0.19005200
 C    -0.43193400    2.74848000    0.22035000
 H     4.03828900    0.09078600   -0.67044400
 H     3.96529500   -0.83630700    0.82815000
 H     2.93672600   -1.28211200   -0.53336300
 H     1.62448300   -0.05379100    1.21425200
 H     2.70183400    1.32559300    1.06154100
 H     2.06424600    1.51220600   -1.36739400
 H     0.94451900    0.17535900   -1.14907600
 H    -1.15263700    3.44813600    0.56539400

 --
0 1
 C    -3.36883100    0.43926900   -0.00463600
 C    -2.27232700   -0.48346000   -0.51672100
 C    -1.41785300   -1.01696100    0.63687900
 C    -0.39726800   -1.95738800    0.18805600
 C     0.43220700   -2.74766000   -0.22381000
 H    -2.93618000    1.28194100    0.53517500
 H    -3.96744500    0.83535600   -0.82405200
 H    -4.03725500   -0.09105900    0.67510600
 H    -2.70409800   -1.32640200   -1.05910400
 H    -1.62722800    0.05302000   -1.21448700
 H    -0.94316000   -0.17511700    1.14811300
 H    -2.06169300   -1.51260300    1.36830200
 H     1.15252500   -3.44704000   -0.57020100

units angstrom

no_reorient
symmetry c1
}

set globals{
  basis jun-cc-pVTZ
  scf_type DF
  freeze_core True
}

energy('sapt0')

--------------------------------------------------------------------------

  //              Dimer HF             //
    Molecular point group: c1
  Charge       = 0
  Multiplicity = 1
  Basis Set: JUN-CC-PVTZ
    Blend: JUN-CC-PVTZ
  Basis Set: (JUN-CC-PVTZ AUX)
    Blend: JUN-CC-PVTZ-JKFIT
  @DF-RHF Final Energy:  -388.00233346334932
    Total Energy =                       -388.0023334633492595
  //            Monomer A HF           //
    Molecular point group: c1
  Multiplicity = 1
  Basis Set: JUN-CC-PVTZ
    Blend: JUN-CC-PVTZ
  Basis Set: (JUN-CC-PVTZ AUX)
    Blend: JUN-CC-PVTZ-JKFIT
  @DF-RHF Final Energy:  -194.00325252606777
    Total Energy =                       -194.0032525260677687
  //            Monomer B HF           //
    Molecular point group: c1

    Geometry (in Angstrom), charge = 0, multiplicity = 1:

       Center              X                  Y                   Z               Mass
    ------------   -----------------  -----------------  -----------------  -----------------
      Gh(C)           3.368396077490    -0.439764913358     0.007759785688    12.000000000000
      Gh(C)           2.271006077490     0.482904086642     0.518046785688    12.000000000000
      Gh(C)           1.418845077490     1.016930086642    -0.637019214312    12.000000000000
      Gh(C)           0.398003077490     1.957931086642    -0.189994214312    12.000000000000
      Gh(C)          -0.431946922510     2.748465086642     0.220407785688    12.000000000000
      Gh(H)           4.038276077490     0.090771086642    -0.670386214312     1.007825032230
      Gh(H)           3.965282077490    -0.836321913358     0.828207785688     1.007825032230
      Gh(H)           2.936713077490    -1.282126913358    -0.533305214312     1.007825032230
      Gh(H)           1.624470077490    -0.053805913358     1.214309785688     1.007825032230
      Gh(H)           2.701821077490     1.325578086642     1.061598785688     1.007825032230
      Gh(H)           2.064233077490     1.512191086642    -1.367336214312     1.007825032230
      Gh(H)           0.944506077490     0.175344086642    -1.149018214312     1.007825032230
      Gh(H)          -1.152649922510     3.448121086642     0.565451785688     1.007825032230
         C           -3.368843922510     0.439254086642    -0.004578214312    12.000000000000
         C           -2.272339922510    -0.483474913358    -0.516663214312    12.000000000000
         C           -1.417865922510    -1.016975913358     0.636936785688    12.000000000000
         C           -0.397280922510    -1.957402913358     0.188113785688    12.000000000000
         C            0.432194077490    -2.747674913358    -0.223752214312    12.000000000000
         H           -2.936192922510     1.281926086642     0.535232785688     1.007825032230
         H           -3.967457922510     0.835341086642    -0.823994214312     1.007825032230
         H           -4.037267922510    -0.091073913358     0.675163785688     1.007825032230
         H           -2.704110922510    -1.326416913358    -1.059046214312     1.007825032230
         H           -1.627240922510     0.053005086642    -1.214429214312     1.007825032230
         H           -0.943172922510    -0.175131913358     1.148170785688     1.007825032230
         H           -2.061705922510    -1.512617913358     1.368359785688     1.007825032230
         H            1.152512077490    -3.447054913358    -0.570143214312     1.007825032230

  Charge       = 0
  Multiplicity = 1
  Basis Set: JUN-CC-PVTZ
    Blend: JUN-CC-PVTZ
  Basis Set: (JUN-CC-PVTZ AUX)
    Blend: JUN-CC-PVTZ-JKFIT

    Orbital Energies [Eh]
    ---------------------

    Doubly Occupied:

       1A    -11.250073     2A    -11.235780     3A    -11.229233
       4A    -11.221626     5A    -11.218115     6A     -1.094048
       7A     -1.016458     8A     -0.940281     9A     -0.823429
      10A     -0.718480    11A     -0.649302    12A     -0.640759
      13A     -0.579124    14A     -0.560080    15A     -0.513287
      16A     -0.496653    17A     -0.486516    18A     -0.379129
      19A     -0.377992

  @DF-RHF Final Energy:  -194.00325325789095

   => Energetics <=

    Nuclear Repulsion Energy =            154.1504157612223764
    One-Electron Energy =                -565.4465981909762604
    Two-Electron Energy =                 217.2929291718629656
    Total Energy =                       -194.0032532578909468

  Dipole Moment: [D]
     X:    -0.7063      Y:     0.5793      Z:     0.0618     Total:     0.9156

    SAPT Results
  --------------------------------------------------------------------------------------------------------
    Electrostatics                 -6.57950626 [mEh]      -4.12870251 [kcal/mol]     -17.27449130 [kJ/mol]
      Elst10,r                     -6.57950626 [mEh]      -4.12870251 [kcal/mol]     -17.27449130 [kJ/mol]

    Exchange                       12.43803774 [mEh]       7.80498652 [kcal/mol]      32.65606359 [kJ/mol]
      Exch10                       12.43803774 [mEh]       7.80498652 [kcal/mol]      32.65606359 [kJ/mol]
      Exch10(S^2)                  12.40622766 [mEh]       7.78502539 [kcal/mol]      32.57254624 [kJ/mol]

    Induction                      -1.68621087 [mEh]      -1.05811330 [kcal/mol]      -4.42714604 [kJ/mol]
      Ind20,r                      -3.87709740 [mEh]      -2.43291535 [kcal/mol]     -10.17931782 [kJ/mol]
      Exch-Ind20,r                  3.21904445 [mEh]       2.01998089 [kcal/mol]       8.45160004 [kJ/mol]
      delta HF,r (2)               -1.02815792 [mEh]      -0.64517884 [kcal/mol]      -2.69942825 [kJ/mol]

    Dispersion                    -12.39947100 [mEh]      -7.78078552 [kcal/mol]     -32.55480661 [kJ/mol]
      Disp20                      -13.95618058 [mEh]      -8.75763553 [kcal/mol]     -36.64194707 [kJ/mol]
      Exch-Disp20                   1.55670959 [mEh]       0.97685001 [kcal/mol]       4.08714046 [kJ/mol]
      Disp20 (SS)                  -6.97809029 [mEh]      -4.37881777 [kcal/mol]     -18.32097354 [kJ/mol]
      Disp20 (OS)                  -6.97809029 [mEh]      -4.37881777 [kcal/mol]     -18.32097354 [kJ/mol]
      Exch-Disp20 (SS)              1.00300932 [mEh]       0.62939785 [kcal/mol]       2.63340062 [kJ/mol]
      Exch-Disp20 (OS)              0.55370026 [mEh]       0.34745216 [kcal/mol]       1.45373984 [kJ/mol]

  Total HF                          4.17232061 [mEh]       2.61817071 [kcal/mol]      10.95442625 [kJ/mol]
  Total SAPT0                      -8.22715039 [mEh]      -5.16261481 [kcal/mol]     -21.60038036 [kJ/mol]

  Special recipe for scaled SAPT0 (see Manual):
    Electrostatics sSAPT0          -6.57950626 [mEh]      -4.12870251 [kcal/mol]     -17.27449130 [kJ/mol]
    Exchange sSAPT0                12.43803774 [mEh]       7.80498652 [kcal/mol]      32.65606359 [kJ/mol]
    Induction sSAPT0               -1.66138604 [mEh]      -1.04253548 [kcal/mol]      -4.36196845 [kJ/mol]
    Dispersion sSAPT0             -12.38746586 [mEh]      -7.77325219 [kcal/mol]     -32.52328714 [kJ/mol]
  Total sSAPT0                     -8.19032042 [mEh]      -5.13950366 [kcal/mol]     -21.50368331 [kJ/mol]
  --------------------------------------------------------------------------------------------------------

*** Psi4 exiting successfully. Buy a developer a beer!
