                               Psi4 1.3.2 release

  ==> Input File <==

--------------------------------------------------------------------------
# Any line starting with the # character is a comment line
#! Sample  computation

memory 22 gb

molecule Dimer {
0 1
 C 1.692554    1.890323    0.551229
 C 1.696155    0.837820   -0.058850
 C 1.696094   -0.446302   -0.752608
 C 1.699847   -1.624845    0.223364
 H 1.689767    2.814274    1.074672
 H 0.817955   -0.498533   -1.399618
 H 2.570081   -0.498443   -1.404407
 H 1.690840   -2.568392   -0.320876
 H 2.587761   -1.595631    0.852561
 H 0.824648   -1.588564    0.869886

 --
0 1
 C -1.992465    0.675944   -1.075634
 C -2.051117   -0.552148   -0.174730
 C -1.838000   -0.190114    1.290278
 H -2.775040    1.386562   -0.805490
 H -1.033943    1.186638   -0.970086
 H -2.127307    0.414058   -2.125213
 H -1.293642   -1.275106   -0.487152
 H -3.015637   -1.050222   -0.294516
 H -1.870230   -1.070362    1.932692
 H -0.872619    0.298954    1.428790
 H -2.611044    0.500691    1.630465

units angstrom

no_reorient
symmetry c1
}

set globals{
  basis jun-cc-pvtz
}

energy('sapt0')

--------------------------------------------------------------------------

  //              Dimer HF             //
    Molecular point group: c1
  Charge       = 0
  Multiplicity = 1
  Basis Set: JUN-CC-PVTZ
    Blend: JUN-CC-PVTZ
  Basis Set: (JUN-CC-PVTZ AUX)
    Blend: JUN-CC-PVTZ-JKFIT
  @DF-RHF Final Energy:  -273.26016035059240
    Total Energy =                       -273.2601603505924004
  //            Monomer A HF           //
    Molecular point group: c1
  Multiplicity = 1
  Basis Set: JUN-CC-PVTZ
    Blend: JUN-CC-PVTZ
  Basis Set: (JUN-CC-PVTZ AUX)
    Blend: JUN-CC-PVTZ-JKFIT
  @DF-RHF Final Energy:  -154.95536823769106
    Total Energy =                       -154.9553682376910615
  //            Monomer B HF           //
    Molecular point group: c1

    Geometry (in Angstrom), charge = 0, multiplicity = 1:

       Center              X                  Y                   Z               Mass
    ------------   -----------------  -----------------  -----------------  -----------------
      Gh(C)           1.637758042396     1.854482172324     0.551043973523    12.000000000000
      Gh(C)           1.641359042396     0.801979172324    -0.059035026477    12.000000000000
      Gh(C)           1.641298042396    -0.482142827676    -0.752793026477    12.000000000000
      Gh(C)           1.645051042396    -1.660685827676     0.223178973523    12.000000000000
      Gh(H)           1.634971042396     2.778433172324     1.074486973523     1.007825032230
      Gh(H)           0.763159042396    -0.534373827676    -1.399803026477     1.007825032230
      Gh(H)           2.515285042396    -0.534283827676    -1.404592026477     1.007825032230
      Gh(H)           1.636044042396    -2.604232827676    -0.321061026477     1.007825032230
      Gh(H)           2.532965042396    -1.631471827676     0.852375973523     1.007825032230
      Gh(H)           0.769852042396    -1.624404827676     0.869700973523     1.007825032230
         C           -2.047260957604     0.640103172324    -1.075819026477    12.000000000000
         C           -2.105912957604    -0.587988827676    -0.174915026477    12.000000000000
         C           -1.892795957604    -0.225954827676     1.290092973523    12.000000000000
         H           -2.829835957604     1.350721172324    -0.805675026477     1.007825032230
         H           -1.088738957604     1.150797172324    -0.970271026477     1.007825032230
         H           -2.182102957604     0.378217172324    -2.125398026477     1.007825032230
         H           -1.348437957604    -1.310946827676    -0.487337026477     1.007825032230
         H           -3.070432957604    -1.086062827676    -0.294701026477     1.007825032230
         H           -1.925025957604    -1.106202827676     1.932506973523     1.007825032230
         H           -0.927414957604     0.263113172324     1.428604973523     1.007825032230
         H           -2.665839957604     0.464850172324     1.630279973523     1.007825032230

  Charge       = 0
  Multiplicity = 1
  Basis Set: JUN-CC-PVTZ
    Blend: JUN-CC-PVTZ
  Basis Set: (JUN-CC-PVTZ AUX)
    Blend: JUN-CC-PVTZ-JKFIT

    Orbital Energies [Eh]
    ---------------------

    Doubly Occupied:

       1A    -11.215688     2A    -11.207991     3A    -11.207943
       4A     -1.053969     5A     -0.924514     6A     -0.799837
       7A     -0.624470     8A     -0.598532     9A     -0.549256
      10A     -0.529947    11A     -0.476037    12A     -0.474661
      13A     -0.467761

  @DF-RHF Final Energy:  -118.30804113113858

   => Energetics <=

    Nuclear Repulsion Energy =             82.8198153477739680
    One-Electron Energy =                -321.9945015102022126
    Two-Electron Energy =                 120.8666450312896785
    Total Energy =                       -118.3080411311385802

  Dipole Moment: [D]
     X:    -0.0175      Y:    -0.0765      Z:    -0.0269     Total:     0.0830

    SAPT Results
  --------------------------------------------------------------------------------------------------------
    Electrostatics                 -2.64384713 [mEh]      -1.65903912 [kcal/mol]      -6.94141968 [kJ/mol]
      Elst10,r                     -2.64384713 [mEh]      -1.65903912 [kcal/mol]      -6.94141968 [kJ/mol]

    Exchange                        6.68178512 [mEh]       4.19288346 [kcal/mol]      17.54302441 [kJ/mol]
      Exch10                        6.68178512 [mEh]       4.19288346 [kcal/mol]      17.54302441 [kJ/mol]
      Exch10(S^2)                   6.66991239 [mEh]       4.18543321 [kcal/mol]      17.51185257 [kJ/mol]

    Induction                      -0.78891975 [mEh]      -0.49505462 [kcal/mol]      -2.07130852 [kJ/mol]
      Ind20,r                      -1.39293694 [mEh]      -0.87408112 [kcal/mol]      -3.65715542 [kJ/mol]
      Exch-Ind20,r                  1.07349590 [mEh]       0.67362885 [kcal/mol]       2.81846310 [kJ/mol]
      delta HF,r (2)               -0.46947872 [mEh]      -0.29460234 [kcal/mol]      -1.23261620 [kJ/mol]

    Dispersion                     -7.44264439 [mEh]      -4.67032986 [kcal/mol]     -19.54066015 [kJ/mol]
      Disp20                       -8.19691948 [mEh]      -5.14364463 [kcal/mol]     -21.52100912 [kJ/mol]
      Exch-Disp20                   0.75427509 [mEh]       0.47331476 [kcal/mol]       1.98034897 [kJ/mol]
      Disp20 (SS)                  -4.09845974 [mEh]      -2.57182231 [kcal/mol]     -10.76050456 [kJ/mol]
      Disp20 (OS)                  -4.09845974 [mEh]      -2.57182231 [kcal/mol]     -10.76050456 [kJ/mol]
      Exch-Disp20 (SS)              0.49659326 [mEh]       0.31161697 [kcal/mol]       1.30380541 [kJ/mol]
      Exch-Disp20 (OS)              0.25768183 [mEh]       0.16169779 [kcal/mol]       0.67654356 [kJ/mol]

  Total HF                          3.24901824 [mEh]       2.03878972 [kcal/mol]       8.53029621 [kJ/mol]
  Total SAPT0                      -4.19362615 [mEh]      -2.63154014 [kcal/mol]     -11.01036395 [kJ/mol]

  Special recipe for scaled SAPT0 (see Manual):
    Electrostatics sSAPT0          -2.64384713 [mEh]      -1.65903912 [kcal/mol]      -6.94141968 [kJ/mol]
    Exchange sSAPT0                 6.68178512 [mEh]       4.19288346 [kcal/mol]      17.54302441 [kJ/mol]
    Induction sSAPT0               -0.78317694 [mEh]      -0.49145095 [kcal/mol]      -2.05623076 [kJ/mol]
    Dispersion sSAPT0              -7.43860929 [mEh]      -4.66779780 [kcal/mol]     -19.53006600 [kJ/mol]
  Total sSAPT0                     -4.18384824 [mEh]      -2.62540441 [kcal/mol]     -10.98469204 [kJ/mol]
  --------------------------------------------------------------------------------------------------------

*** Psi4 exiting successfully. Buy a developer a beer!
