                               Psi4 1.3.2 release

  ==> Input File <==

--------------------------------------------------------------------------
# Any line starting with the # character is a comment line
#! Sample  computation

memory 22 gb

molecule Dimer {
0 1
 C 2.222532   -0.985469    0.240678
 C 1.911048    0.412380   -0.031741
 C 1.649480    1.577655   -0.257294
 H 2.177234   -1.574525   -0.674184
 H 3.222440   -1.081029    0.661366
 H 1.510003   -1.405557    0.949635
 H 1.425755    2.596865   -0.452908

 --
0 1
 C -1.262547   -1.255763   -0.587270
 C -1.580683   -0.312342    0.566129
 C -2.114279    1.024390    0.067420
 H -2.155486   -1.450192   -1.183442
 H -0.512794   -0.813137   -1.244852
 H -0.882112   -2.214929   -0.234752
 H -0.680203   -0.139830    1.159043
 H -2.312275   -0.776940    1.230759
 H -2.336569    1.702430    0.891148
 H -1.380118    1.507071   -0.578882
 H -3.029171    0.884667   -0.510463

units angstrom

no_reorient
symmetry c1
}

set globals{
  basis jun-cc-pvtz
}

energy('sapt0')

--------------------------------------------------------------------------

  //              Dimer HF             //
    Molecular point group: c1
  Charge       = 0
  Multiplicity = 1
  Basis Set: JUN-CC-PVTZ
    Blend: JUN-CC-PVTZ
  Basis Set: (JUN-CC-PVTZ AUX)
    Blend: JUN-CC-PVTZ-JKFIT
  @DF-RHF Final Energy:  -234.21275261992622
    Total Energy =                       -234.2127526199262206
  //            Monomer A HF           //
    Molecular point group: c1
  Multiplicity = 1
  Basis Set: JUN-CC-PVTZ
    Blend: JUN-CC-PVTZ
  Basis Set: (JUN-CC-PVTZ AUX)
    Blend: JUN-CC-PVTZ-JKFIT
  @DF-RHF Final Energy:  -115.90764981270945
    Total Energy =                       -115.9076498127094510
  //            Monomer B HF           //
    Molecular point group: c1

    Geometry (in Angstrom), charge = 0, multiplicity = 1:

       Center              X                  Y                   Z               Mass
    ------------   -----------------  -----------------  -----------------  -----------------
      Gh(C)           2.164090706677    -1.018092875737     0.240825102673    12.000000000000
      Gh(C)           1.852606706677     0.379756124263    -0.031593897327    12.000000000000
      Gh(C)           1.591038706677     1.545031124263    -0.257146897327    12.000000000000
      Gh(H)           2.118792706677    -1.607148875737    -0.674036897327     1.007825032230
      Gh(H)           3.163998706677    -1.113652875737     0.661513102673     1.007825032230
      Gh(H)           1.451561706677    -1.438180875737     0.949782102673     1.007825032230
      Gh(H)           1.367313706677     2.564241124263    -0.452760897327     1.007825032230
         C           -1.320988293323    -1.288386875737    -0.587122897327    12.000000000000
         C           -1.639124293323    -0.344965875737     0.566276102673    12.000000000000
         C           -2.172720293323     0.991766124263     0.067567102673    12.000000000000
         H           -2.213927293323    -1.482815875737    -1.183294897327     1.007825032230
         H           -0.571235293323    -0.845760875737    -1.244704897327     1.007825032230
         H           -0.940553293323    -2.247552875737    -0.234604897327     1.007825032230
         H           -0.738644293323    -0.172453875737     1.159190102673     1.007825032230
         H           -2.370716293323    -0.809563875737     1.230906102673     1.007825032230
         H           -2.395010293323     1.669806124263     0.891295102673     1.007825032230
         H           -1.438559293323     1.474447124263    -0.578734897327     1.007825032230
         H           -3.087612293323     0.852043124263    -0.510315897327     1.007825032230

  Charge       = 0
  Multiplicity = 1
  Basis Set: JUN-CC-PVTZ
    Blend: JUN-CC-PVTZ
  Basis Set: (JUN-CC-PVTZ AUX)
    Blend: JUN-CC-PVTZ-JKFIT

    Orbital Energies [Eh]
    ---------------------

    Doubly Occupied:

       1A    -11.215443     2A    -11.207903     3A    -11.207662
       4A     -1.054432     5A     -0.924431     6A     -0.799531
       7A     -0.625601     8A     -0.598483     9A     -0.548710
      10A     -0.530330    11A     -0.475274    12A     -0.474527
      13A     -0.468624

  @DF-RHF Final Energy:  -118.30801356339751

   => Energetics <=

    Nuclear Repulsion Energy =             82.8680195189500637
    One-Electron Energy =                -322.0901631410330310
    Two-Electron Energy =                 120.9141300586854584
    Total Energy =                       -118.3080135633975090

  Dipole Moment: [D]
     X:     0.0109      Y:    -0.0183      Z:     0.0806     Total:     0.0834

    SAPT Results
  --------------------------------------------------------------------------------------------------------
    Electrostatics                 -2.34374047 [mEh]      -1.47071935 [kcal/mol]      -6.15348976 [kJ/mol]
      Elst10,r                     -2.34374047 [mEh]      -1.47071935 [kcal/mol]      -6.15348976 [kJ/mol]

    Exchange                        5.90817915 [mEh]       3.70743839 [kcal/mol]      15.51192221 [kJ/mol]
      Exch10                        5.90817915 [mEh]       3.70743839 [kcal/mol]      15.51192221 [kJ/mol]
      Exch10(S^2)                   5.89405780 [mEh]       3.69857711 [kcal/mol]      15.47484663 [kJ/mol]

    Induction                      -0.65368249 [mEh]      -0.41019196 [kcal/mol]      -1.71624315 [kJ/mol]
      Ind20,r                      -1.52805533 [mEh]      -0.95886920 [kcal/mol]      -4.01190873 [kJ/mol]
      Exch-Ind20,r                  1.30834718 [mEh]       0.82100025 [kcal/mol]       3.43506506 [kJ/mol]
      delta HF,r (2)               -0.43397434 [mEh]      -0.27232301 [kcal/mol]      -1.13939948 [kJ/mol]

    Dispersion                     -6.48617522 [mEh]      -4.07013640 [kcal/mol]     -17.02945068 [kJ/mol]
      Disp20                       -7.21093609 [mEh]      -4.52493071 [kcal/mol]     -18.93231009 [kJ/mol]
      Exch-Disp20                   0.72476087 [mEh]       0.45479431 [kcal/mol]       1.90285941 [kJ/mol]
      Disp20 (SS)                  -3.60546804 [mEh]      -2.26246536 [kcal/mol]      -9.46615505 [kJ/mol]
      Disp20 (OS)                  -3.60546804 [mEh]      -2.26246536 [kcal/mol]      -9.46615505 [kJ/mol]
      Exch-Disp20 (SS)              0.46795667 [mEh]       0.29364724 [kcal/mol]       1.22862007 [kJ/mol]
      Exch-Disp20 (OS)              0.25680420 [mEh]       0.16114707 [kcal/mol]       0.67423934 [kJ/mol]

  Total HF                          2.91075618 [mEh]       1.82652708 [kcal/mol]       7.64218930 [kJ/mol]
  Total SAPT0                      -3.57541903 [mEh]      -2.24360932 [kcal/mol]      -9.38726138 [kJ/mol]

  Special recipe for scaled SAPT0 (see Manual):
    Electrostatics sSAPT0          -2.34374047 [mEh]      -1.47071935 [kcal/mol]      -6.15348976 [kJ/mol]
    Exchange sSAPT0                 5.90817915 [mEh]       3.70743839 [kcal/mol]      15.51192221 [kJ/mol]
    Induction sSAPT0               -0.64425609 [mEh]      -0.40427680 [kcal/mol]      -1.69149414 [kJ/mol]
    Dispersion sSAPT0              -6.48095345 [mEh]      -4.06685969 [kcal/mol]     -17.01574093 [kJ/mol]
  Total sSAPT0                     -3.56077086 [mEh]      -2.23441745 [kcal/mol]      -9.34880262 [kJ/mol]
  --------------------------------------------------------------------------------------------------------

*** Psi4 exiting successfully. Buy a developer a beer!
