                               Psi4 1.3.2 release

  ==> Input File <==

--------------------------------------------------------------------------
# Any line starting with the # character is a comment line
#! Sample  computation

memory 22 gb

molecule Dimer {

0 1
 C    1.39926900    1.34188900    0.41425300
 C    1.99811500    0.10398000   -0.07103000
 C    2.49367200   -0.92975700   -0.47514400
 H    1.57649700    1.45986400    1.48230800
 H    1.82939700    2.20022200   -0.09988100
 H    0.32339900    1.34119100    0.24037600
 H    2.93168900   -1.82879200   -0.83134900

 --
0 1
 C    -2.49369900    0.92974300   -0.47515100
 C    -1.99814700   -0.10398500   -0.07100000
 C    -1.39922800   -1.34187200    0.41427800
 H    -2.93178200    1.82874500   -0.83135700
 H    -1.58247000   -1.46336400    1.48091900
 H    -1.82424400   -2.19973300   -0.10486900
 H    -0.32237400   -1.33813000    0.24662000

units angstrom

no_reorient
symmetry c1
}

set globals{
  basis jun-cc-pVTZ
  scf_type DF
  freeze_core True
}

energy('sapt0')

--------------------------------------------------------------------------

  //              Dimer HF             //
    Molecular point group: c1
  Charge       = 0
  Multiplicity = 1
  Basis Set: JUN-CC-PVTZ
    Blend: JUN-CC-PVTZ
  Basis Set: (JUN-CC-PVTZ AUX)
    Blend: JUN-CC-PVTZ-JKFIT
  @DF-RHF Final Energy:  -231.81447156219804
    Total Energy =                       -231.8144715621980367
  //            Monomer A HF           //
    Molecular point group: c1
  Multiplicity = 1
  Basis Set: JUN-CC-PVTZ
    Blend: JUN-CC-PVTZ
  Basis Set: (JUN-CC-PVTZ AUX)
    Blend: JUN-CC-PVTZ-JKFIT
  @DF-RHF Final Energy:  -115.90760727143950
    Total Energy =                       -115.9076072714395025
  //            Monomer B HF           //
    Molecular point group: c1

    Geometry (in Angstrom), charge = 0, multiplicity = 1:

       Center              X                  Y                   Z               Mass
    ------------   -----------------  -----------------  -----------------  -----------------
      Gh(C)           1.399270288037     1.341889262002     0.433867349174    12.000000000000
      Gh(C)           1.998116288037     0.103980262002    -0.051415650826    12.000000000000
      Gh(C)           2.493673288037    -0.929756737998    -0.455529650826    12.000000000000
      Gh(H)           1.576498288037     1.459864262002     1.501922349174     1.007825032230
      Gh(H)           1.829398288037     2.200222262002    -0.080266650826     1.007825032230
      Gh(H)           0.323400288037     1.341191262002     0.259990349174     1.007825032230
      Gh(H)           2.931690288037    -1.828791737998    -0.811734650826     1.007825032230
         C           -2.493697711963     0.929743262002    -0.455536650826    12.000000000000
         C           -1.998145711963    -0.103984737998    -0.051385650826    12.000000000000
         C           -1.399226711963    -1.341871737998     0.433892349174    12.000000000000
         H           -2.931780711963     1.828745262002    -0.811742650826     1.007825032230
         H           -1.582468711963    -1.463363737998     1.500533349174     1.007825032230
         H           -1.824242711963    -2.199732737998    -0.085254650826     1.007825032230
         H           -0.322372711963    -1.338129737998     0.266234349174     1.007825032230

  Charge       = 0
  Multiplicity = 1
  Basis Set: JUN-CC-PVTZ
    Blend: JUN-CC-PVTZ
  Basis Set: (JUN-CC-PVTZ AUX)
    Blend: JUN-CC-PVTZ-JKFIT

    Orbital Energies [Eh]
    ---------------------

    Doubly Occupied:

       1A    -11.250982     2A    -11.239837     3A    -11.222992
       4A     -1.057170     5A     -0.957211     6A     -0.719775
       7A     -0.622984     8A     -0.594165     9A     -0.593810
      10A     -0.382295    11A     -0.382230

  @DF-RHF Final Energy:  -115.90760689268710

   => Energetics <=

    Nuclear Repulsion Energy =             58.5959550029191050
    One-Electron Energy =                -270.9602204699583012
    Two-Electron Energy =                  96.4566585743520903
    Total Energy =                       -115.9076068926870988

  Dipole Moment: [D]
     X:     0.3338      Y:    -0.7032      Z:     0.2706     Total:     0.8241

    SAPT Results
  --------------------------------------------------------------------------------------------------------
    Electrostatics                 -4.40875353 [mEh]      -2.76653461 [kcal/mol]     -11.57518079 [kJ/mol]
      Elst10,r                     -4.40875353 [mEh]      -2.76653461 [kcal/mol]     -11.57518079 [kJ/mol]

    Exchange                        6.36228267 [mEh]       3.99239265 [kcal/mol]      16.70417086 [kJ/mol]
      Exch10                        6.36228267 [mEh]       3.99239265 [kcal/mol]      16.70417086 [kJ/mol]
      Exch10(S^2)                   6.34712663 [mEh]       3.98288209 [kcal/mol]      16.66437868 [kJ/mol]

    Induction                      -1.21092722 [mEh]      -0.75986830 [kcal/mol]      -3.17928897 [kJ/mol]
      Ind20,r                      -1.67523572 [mEh]      -1.05122629 [kcal/mol]      -4.39833078 [kJ/mol]
      Exch-Ind20,r                  1.11176026 [mEh]       0.69764010 [kcal/mol]       2.91892617 [kJ/mol]
      delta HF,r (2)               -0.64745176 [mEh]      -0.40628211 [kcal/mol]      -1.69988436 [kJ/mol]

    Dispersion                     -4.96305491 [mEh]      -3.11436398 [kcal/mol]     -13.03049888 [kJ/mol]
      Disp20                       -5.57762329 [mEh]      -3.50001146 [kcal/mol]     -14.64404794 [kJ/mol]
      Exch-Disp20                   0.61456838 [mEh]       0.38564748 [kcal/mol]       1.61354905 [kJ/mol]
      Disp20 (SS)                  -2.78881165 [mEh]      -1.75000573 [kcal/mol]      -7.32202397 [kJ/mol]
      Disp20 (OS)                  -2.78881165 [mEh]      -1.75000573 [kcal/mol]      -7.32202397 [kJ/mol]
      Exch-Disp20 (SS)              0.40719915 [mEh]       0.25552133 [kcal/mol]       1.06910123 [kJ/mol]
      Exch-Disp20 (OS)              0.20736922 [mEh]       0.13012615 [kcal/mol]       0.54444782 [kJ/mol]

  Total HF                          0.74260193 [mEh]       0.46598975 [kcal/mol]       1.94970109 [kJ/mol]
  Total SAPT0                      -4.22045299 [mEh]      -2.64837423 [kcal/mol]     -11.08079779 [kJ/mol]

  Special recipe for scaled SAPT0 (see Manual):
    Electrostatics sSAPT0          -4.40875353 [mEh]      -2.76653461 [kcal/mol]     -11.57518079 [kJ/mol]
    Exchange sSAPT0                 6.36228267 [mEh]       3.99239265 [kcal/mol]      16.70417086 [kJ/mol]
    Induction sSAPT0               -1.20294401 [mEh]      -0.75485876 [kcal/mol]      -3.15832905 [kJ/mol]
    Dispersion sSAPT0              -4.95864189 [mEh]      -3.11159476 [kcal/mol]     -13.01891248 [kJ/mol]
  Total sSAPT0                     -4.20805675 [mEh]      -2.64059548 [kcal/mol]     -11.04825147 [kJ/mol]
  --------------------------------------------------------------------------------------------------------

*** Psi4 exiting successfully. Buy a developer a beer!
