                               Psi4 1.3.2 release

  ==> Input File <==

--------------------------------------------------------------------------
# Any line starting with the # character is a comment line
#! Sample  computation

memory 22 gb

molecule Dimer {

0 1
 C    2.66526000    0.61925200   -0.83041400
 C    1.56765400   -0.13427800   -1.57829400
 H    3.59898000    0.02404800   -0.84123600
 H    2.87423600    1.52544300   -1.42795800
 O    1.16833800   -1.37469900   -0.95143300
 H    0.64690900    0.46898900   -1.60462500
 H    1.87771700   -0.33140500   -2.62016100
 H    1.96002400   -1.92020800   -0.83800600
 C    2.30959300    1.01603400    0.61556500
 H    2.89241100    1.91318100    0.88543000
 H    1.24484500    1.30512600    0.66275700
 C    2.59365600   -0.07794700    1.65504300
 H    3.65635900   -0.37399400    1.62305200
 H    2.37613800    0.28401600    2.67196200
 H    1.97653900   -0.97178900    1.48744000

 --
0 1
 C    -2.61475600   -0.54435800   -0.56371400
 C    -2.07040000   -1.32433100    0.63757000
 H    -1.84924500   -0.53568800   -1.36282200
 H    -3.47426700   -1.11576700   -0.96142700
 O    -0.79861600   -0.85859400    1.10970700
 H    -2.76237200   -1.22458800    1.49082300
 H    -2.01046700   -2.39938000    0.38294500
 H    -0.13729600   -1.09532500    0.43400100
 C    -3.07644800    0.88834500   -0.25152400
 H    -3.62426600    1.27911200   -1.12729800
 H    -3.80649300    0.85039400    0.57784600
 C    -1.94614200    1.86405200    0.10544500
 H    -1.21049500    1.92009800   -0.71538000
 H    -2.34345200    2.87946700    0.26651400
 H    -1.41408500    1.54399600    1.01189000

units angstrom

no_reorient
symmetry c1
}

set globals{
  basis jun-cc-pVTZ
  scf_type DF
  freeze_core True
}

energy('sapt0')

--------------------------------------------------------------------------

  //              Dimer HF             //
    Molecular point group: c1
  Charge       = 0
  Multiplicity = 1
  Basis Set: JUN-CC-PVTZ
    Blend: JUN-CC-PVTZ
  Basis Set: (JUN-CC-PVTZ AUX)
    Blend: JUN-CC-PVTZ-JKFIT
  @DF-RHF Final Energy:  -464.47077660779939
    Total Energy =                       -464.4707766077993938
  //            Monomer A HF           //
    Molecular point group: c1
  Multiplicity = 1
  Basis Set: JUN-CC-PVTZ
    Blend: JUN-CC-PVTZ
  Basis Set: (JUN-CC-PVTZ AUX)
    Blend: JUN-CC-PVTZ-JKFIT
  @DF-RHF Final Energy:  -232.23320360008003
    Total Energy =                       -232.2332036000800599
  //            Monomer B HF           //
    Molecular point group: c1

    Geometry (in Angstrom), charge = 0, multiplicity = 1:

       Center              X                  Y                   Z               Mass
    ------------   -----------------  -----------------  -----------------  -----------------
      Gh(C)           2.668431951362     0.646136739048    -0.830437063930    12.000000000000
      Gh(C)           1.570825951362    -0.107393260952    -1.578317063930    12.000000000000
      Gh(H)           3.602151951362     0.050932739048    -0.841259063930     1.007825032230
      Gh(H)           2.877407951362     1.552327739048    -1.427981063930     1.007825032230
      Gh(O)           1.171509951362    -1.347814260952    -0.951456063930    15.994914619570
      Gh(H)           0.650080951362     0.495873739048    -1.604648063930     1.007825032230
      Gh(H)           1.880888951362    -0.304520260952    -2.620184063930     1.007825032230
      Gh(H)           1.963195951362    -1.893323260952    -0.838029063930     1.007825032230
      Gh(C)           2.312764951362     1.042918739048     0.615541936070    12.000000000000
      Gh(H)           2.895582951362     1.940065739048     0.885406936070     1.007825032230
      Gh(H)           1.248016951362     1.332010739048     0.662733936070     1.007825032230
      Gh(C)           2.596827951362    -0.051062260952     1.655019936070    12.000000000000
      Gh(H)           3.659530951362    -0.347109260952     1.623028936070     1.007825032230
      Gh(H)           2.379309951362     0.310900739048     2.671938936070     1.007825032230
      Gh(H)           1.979710951362    -0.944904260952     1.487416936070     1.007825032230
         C           -2.611584048638    -0.517473260952    -0.563737063930    12.000000000000
         C           -2.067228048638    -1.297446260952     0.637546936070    12.000000000000
         H           -1.846073048638    -0.508803260952    -1.362845063930     1.007825032230
         H           -3.471095048638    -1.088882260952    -0.961450063930     1.007825032230
         O           -0.795444048638    -0.831709260952     1.109683936070    15.994914619570
         H           -2.759200048638    -1.197703260952     1.490799936070     1.007825032230
         H           -2.007295048638    -2.372495260952     0.382921936070     1.007825032230
         H           -0.134124048638    -1.068440260952     0.433977936070     1.007825032230
         C           -3.073276048638     0.915229739048    -0.251547063930    12.000000000000
         H           -3.621094048638     1.305996739048    -1.127321063930     1.007825032230
         H           -3.803321048638     0.877278739048     0.577822936070     1.007825032230
         C           -1.942970048638     1.890936739048     0.105421936070    12.000000000000
         H           -1.207323048638     1.946982739048    -0.715403063930     1.007825032230
         H           -2.340280048638     2.906351739048     0.266490936070     1.007825032230
         H           -1.410913048638     1.570880739048     1.011866936070     1.007825032230

  Charge       = 0
  Multiplicity = 1
  Basis Set: JUN-CC-PVTZ
    Blend: JUN-CC-PVTZ
  Basis Set: (JUN-CC-PVTZ AUX)
    Blend: JUN-CC-PVTZ-JKFIT

    Orbital Energies [Eh]
    ---------------------

    Doubly Occupied:

       1A    -20.556772     2A    -11.277111     3A    -11.225474
       4A    -11.221379     5A    -11.205931     6A     -1.351408
       7A     -1.062421     8A     -0.966993     9A     -0.861937
      10A     -0.784637    11A     -0.678322    12A     -0.632319
      13A     -0.620987    14A     -0.576995    15A     -0.554728
      16A     -0.532692    17A     -0.506585    18A     -0.491152
      19A     -0.469702    20A     -0.457444    21A     -0.425053

  @DF-RHF Final Energy:  -232.23350626292455

   => Energetics <=

    Nuclear Repulsion Energy =            190.8147616407173928
    One-Electron Energy =                -693.1764463178255937
    Two-Electron Energy =                 270.1281784141836511
    Total Energy =                       -232.2335062629245499

  Dipole Moment: [D]
     X:    -0.3970      Y:    -0.8233      Z:    -1.5104     Total:     1.7655

    SAPT Results
  --------------------------------------------------------------------------------------------------------
    Electrostatics                -14.99072314 [mEh]      -9.40682079 [kcal/mol]     -39.35813817 [kJ/mol]
      Elst10,r                    -14.99072314 [mEh]      -9.40682079 [kcal/mol]     -39.35813817 [kJ/mol]

    Exchange                       15.76447401 [mEh]       9.89235679 [kcal/mol]      41.38962081 [kJ/mol]
      Exch10                       15.76447401 [mEh]       9.89235679 [kcal/mol]      41.38962081 [kJ/mol]
      Exch10(S^2)                  15.66483308 [mEh]       9.82983116 [kcal/mol]      41.12801359 [kJ/mol]

    Induction                      -4.84049567 [mEh]      -3.03745689 [kcal/mol]     -12.70871962 [kJ/mol]
      Ind20,r                      -6.48149645 [mEh]      -4.06720043 [kcal/mol]     -17.01716660 [kJ/mol]
      Exch-Ind20,r                  3.69409023 [mEh]       2.31807662 [kcal/mol]       9.69883256 [kJ/mol]
      delta HF,r (2)               -2.05308944 [mEh]      -1.28833308 [kcal/mol]      -5.39038559 [kJ/mol]

    Dispersion                     -9.78965808 [mEh]      -6.14310319 [kcal/mol]     -25.70274374 [kJ/mol]
      Disp20                      -11.10501575 [mEh]      -6.96850259 [kcal/mol]     -29.15621484 [kJ/mol]
      Exch-Disp20                   1.31535768 [mEh]       0.82539940 [kcal/mol]       3.45347111 [kJ/mol]
      Disp20 (SS)                  -5.55250788 [mEh]      -3.48425130 [kcal/mol]     -14.57810742 [kJ/mol]
      Disp20 (OS)                  -5.55250788 [mEh]      -3.48425130 [kcal/mol]     -14.57810742 [kJ/mol]
      Exch-Disp20 (SS)              0.83609962 [mEh]       0.52466043 [kcal/mol]       2.19517925 [kJ/mol]
      Exch-Disp20 (OS)              0.47925806 [mEh]       0.30073897 [kcal/mol]       1.25829185 [kJ/mol]

  Total HF                         -4.06674479 [mEh]      -2.55192089 [kcal/mol]     -10.67723699 [kJ/mol]
  Total SAPT0                     -13.85640287 [mEh]      -8.69502407 [kcal/mol]     -36.37998073 [kJ/mol]

  Special recipe for scaled SAPT0 (see Manual):
    Electrostatics sSAPT0         -14.99072314 [mEh]      -9.40682079 [kcal/mol]     -39.35813817 [kJ/mol]
    Exchange sSAPT0                15.76447401 [mEh]       9.89235679 [kcal/mol]      41.38962081 [kJ/mol]
    Induction sSAPT0               -4.76955418 [mEh]      -2.99294043 [kcal/mol]     -12.52246278 [kJ/mol]
    Dispersion sSAPT0              -9.76439788 [mEh]      -6.12725218 [kcal/mol]     -25.63642311 [kJ/mol]
  Total sSAPT0                    -13.76020119 [mEh]      -8.63465661 [kcal/mol]     -36.12740326 [kJ/mol]
  --------------------------------------------------------------------------------------------------------

*** Psi4 exiting successfully. Buy a developer a beer!
