                               Psi4 1.3.2 release

  ==> Input File <==

--------------------------------------------------------------------------
# Any line starting with the # character is a comment line
#! Sample  computation

memory 22 gb

molecule Dimer {
0 1
 C  1.813988   -0.516643   -0.787107
 C  1.472582   -1.432045    0.381814
 H  0.922956   -0.397513   -1.412812
 H  2.555942   -1.034949   -1.402208
 O  0.322265   -1.027938    1.114959
 H  2.298452   -1.438855    1.095901
 H  1.346557   -2.456486    0.016128
 H -0.447842   -1.145460    0.534660
 C  2.369982    0.851234   -0.395338
 H  2.754860    1.340475   -1.293483
 H  3.230366    0.701498    0.263390
 C  1.365782    1.778056    0.283111
 H  0.501777    1.945145   -0.363187
 H  1.815772    2.749170    0.491465
 H  1.003725    1.351722    1.215434

 --
0 1
 C -2.550956    1.014656    0.604778
 C -2.331537    0.310068   -0.717338
 O -2.016267   -1.080311   -0.545504
 H -3.411090    0.595387    1.128658
 H -2.743351    2.074947    0.439073
 H -1.671519    0.912333    1.238333
 H -3.201779    0.412608   -1.369297
 H -1.472624    0.728080   -1.238724
 H -2.769230   -1.504068   -0.118509

units angstrom

no_reorient
symmetry c1
}

set globals{
  basis jun-cc-pvtz
}

energy('sapt0')

--------------------------------------------------------------------------

  //              Dimer HF             //
    Molecular point group: c1
  Charge       = 0
  Multiplicity = 1
  Basis Set: JUN-CC-PVTZ
    Blend: JUN-CC-PVTZ
  Basis Set: (JUN-CC-PVTZ AUX)
    Blend: JUN-CC-PVTZ-JKFIT
  @DF-RHF Final Energy:  -386.38414882985847
    Total Energy =                       -386.3841488298585318
  //            Monomer A HF           //
    Molecular point group: c1
  Multiplicity = 1
  Basis Set: JUN-CC-PVTZ
    Blend: JUN-CC-PVTZ
  Basis Set: (JUN-CC-PVTZ AUX)
    Blend: JUN-CC-PVTZ-JKFIT
  @DF-RHF Final Energy:  -232.23589773286633
    Total Energy =                       -232.2358977328663059
  //            Monomer B HF           //
    Molecular point group: c1

    Geometry (in Angstrom), charge = 0, multiplicity = 1:

       Center              X                  Y                   Z               Mass
    ------------   -----------------  -----------------  -----------------  -----------------
      Gh(C)           1.819805542800    -0.476802105070    -0.793485721409    12.000000000000
      Gh(C)           1.478399542800    -1.392204105070     0.375435278591    12.000000000000
      Gh(H)           0.928773542800    -0.357672105070    -1.419190721409     1.007825032230
      Gh(H)           2.561759542800    -0.995108105070    -1.408586721409     1.007825032230
      Gh(O)           0.328082542800    -0.988097105070     1.108580278591    15.994914619570
      Gh(H)           2.304269542800    -1.399014105070     1.089522278591     1.007825032230
      Gh(H)           1.352374542800    -2.416645105070     0.009749278591     1.007825032230
      Gh(H)          -0.442024457200    -1.105619105070     0.528281278591     1.007825032230
      Gh(C)           2.375799542800     0.891074894930    -0.401716721409    12.000000000000
      Gh(H)           2.760677542800     1.380315894930    -1.299861721409     1.007825032230
      Gh(H)           3.236183542800     0.741338894930     0.257011278591     1.007825032230
      Gh(C)           1.371599542800     1.817896894930     0.276732278591    12.000000000000
      Gh(H)           0.507594542800     1.984985894930    -0.369565721409     1.007825032230
      Gh(H)           1.821589542800     2.789010894930     0.485086278591     1.007825032230
      Gh(H)           1.009542542800     1.391562894930     1.209055278591     1.007825032230
         C           -2.545138457200     1.054496894930     0.598399278591    12.000000000000
         C           -2.325719457200     0.349908894930    -0.723716721409    12.000000000000
         O           -2.010449457200    -1.040470105070    -0.551882721409    15.994914619570
         H           -3.405272457200     0.635227894930     1.122279278591     1.007825032230
         H           -2.737533457200     2.114787894930     0.432694278591     1.007825032230
         H           -1.665701457200     0.952173894930     1.231954278591     1.007825032230
         H           -3.195961457200     0.452448894930    -1.375675721409     1.007825032230
         H           -1.466806457200     0.767920894930    -1.245102721409     1.007825032230
         H           -2.763412457200    -1.464227105070    -0.124887721409     1.007825032230

  Charge       = 0
  Multiplicity = 1
  Basis Set: JUN-CC-PVTZ
    Blend: JUN-CC-PVTZ
  Basis Set: (JUN-CC-PVTZ AUX)
    Blend: JUN-CC-PVTZ-JKFIT

    Orbital Energies [Eh]
    ---------------------

    Doubly Occupied:

       1A    -20.554240     2A    -11.274674     3A    -11.218450
       4A     -1.351423     5A     -1.014825     6A     -0.847647
       7A     -0.684662     8A     -0.621298     9A     -0.605771
      10A     -0.545966    11A     -0.524816    12A     -0.483409
      13A     -0.444995

  @DF-RHF Final Energy:  -154.14419912056937

   => Energetics <=

    Nuclear Repulsion Energy =             81.6332277627833349
    One-Electron Energy =                -371.2104990687679447
    Two-Electron Energy =                 135.4330721854152273
    Total Energy =                       -154.1441991205693682

  Dipole Moment: [D]
     X:    -1.4879      Y:     1.0104      Z:     0.5422     Total:     1.8785

    SAPT Results
  --------------------------------------------------------------------------------------------------------
    Electrostatics                -16.36848276 [mEh]     -10.27137801 [kcal/mol]     -42.97544557 [kJ/mol]
      Elst10,r                    -16.36848276 [mEh]     -10.27137801 [kcal/mol]     -42.97544557 [kJ/mol]

    Exchange                       17.48691082 [mEh]      10.97320221 [kcal/mol]      45.91187803 [kJ/mol]
      Exch10                       17.48691082 [mEh]      10.97320221 [kcal/mol]      45.91187803 [kJ/mol]
      Exch10(S^2)                  17.35499111 [mEh]      10.89042134 [kcal/mol]      45.56552289 [kJ/mol]

    Induction                      -5.17040448 [mEh]      -3.24447779 [kcal/mol]     -13.57489509 [kJ/mol]
      Ind20,r                      -7.48389978 [mEh]      -4.69621801 [kcal/mol]     -19.64897616 [kJ/mol]
      Exch-Ind20,r                  4.55928587 [mEh]       2.86099508 [kcal/mol]      11.97040341 [kJ/mol]
      delta HF,r (2)               -2.24579057 [mEh]      -1.40925486 [kcal/mol]      -5.89632234 [kJ/mol]

    Dispersion                     -8.95180664 [mEh]      -5.61734347 [kcal/mol]     -23.50296508 [kJ/mol]
      Disp20                      -10.36864600 [mEh]      -6.50642359 [kcal/mol]     -27.22287632 [kJ/mol]
      Exch-Disp20                   1.41683936 [mEh]       0.88908012 [kcal/mol]       3.71991123 [kJ/mol]
      Disp20 (SS)                  -5.18432300 [mEh]      -3.25321180 [kcal/mol]     -13.61143816 [kJ/mol]
      Disp20 (OS)                  -5.18432300 [mEh]      -3.25321180 [kcal/mol]     -13.61143816 [kJ/mol]
      Exch-Disp20 (SS)              0.89944780 [mEh]       0.56441201 [kcal/mol]       2.36149987 [kJ/mol]
      Exch-Disp20 (OS)              0.51739156 [mEh]       0.32466811 [kcal/mol]       1.35841136 [kJ/mol]

  Total HF                         -4.05197642 [mEh]      -2.54265359 [kcal/mol]     -10.63846263 [kJ/mol]
  Total SAPT0                     -13.00378306 [mEh]      -8.15999706 [kcal/mol]     -34.14142772 [kJ/mol]

  Special recipe for scaled SAPT0 (see Manual):
    Electrostatics sSAPT0         -16.36848276 [mEh]     -10.27137801 [kcal/mol]     -42.97544557 [kJ/mol]
    Exchange sSAPT0                17.48691082 [mEh]      10.97320221 [kcal/mol]      45.91187803 [kJ/mol]
    Induction sSAPT0               -5.06564330 [mEh]      -3.17873916 [kcal/mol]     -13.29984466 [kJ/mol]
    Dispersion sSAPT0              -8.91925115 [mEh]      -5.59691460 [kcal/mol]     -23.41749067 [kJ/mol]
  Total sSAPT0                    -12.86646640 [mEh]      -8.07382956 [kcal/mol]     -33.78090288 [kJ/mol]
  --------------------------------------------------------------------------------------------------------

*** Psi4 exiting successfully. Buy a developer a beer!
