                               Psi4 1.3.2 release

  ==> Input File <==

--------------------------------------------------------------------------
# Any line starting with the # character is a comment line
#! Sample  computation

memory 22 gb

molecule Dimer {
0 1
 C  2.446413    0.600090    0.162328
 C  1.540107   -0.245060    1.043803
 H  1.866667    1.439852   -0.230765
 H  3.235077    1.027841    0.787194
 O  0.434572   -0.787591    0.332191
 H  2.094505   -1.100626    1.433100
 H  1.194254    0.344929    1.899056
 H -0.132170   -0.045880    0.062614
 C  3.053813   -0.201496   -0.981129
 H  3.675583    0.424473   -1.620313
 H  3.675928   -1.009780   -0.594104
 H  2.270991   -0.647666   -1.591804

 --
0 1
 C -2.966208   -0.893434   -0.429861
 C -2.693621    0.399484    0.309388
 O -1.592430    1.126277   -0.259652
 H -3.252388   -0.695464   -1.463911
 H -3.785152   -1.433259    0.045800
 H -2.079807   -1.525330   -0.424276
 H -3.580616    1.036185    0.332827
 H -2.393826    0.199004    1.335703
 H -1.809203    1.318741   -1.178610

units angstrom

no_reorient
symmetry c1
}

set globals{
  basis jun-cc-pvtz
}

energy('sapt0')

--------------------------------------------------------------------------

  //              Dimer HF             //
    Molecular point group: c1
  Charge       = 0
  Multiplicity = 1
  Basis Set: JUN-CC-PVTZ
    Blend: JUN-CC-PVTZ
  Basis Set: (JUN-CC-PVTZ AUX)
    Blend: JUN-CC-PVTZ-JKFIT
  @DF-RHF Final Energy:  -347.34080420038225
    Total Energy =                       -347.3408042003822516
  //            Monomer A HF           //
    Molecular point group: c1
  Multiplicity = 1
  Basis Set: JUN-CC-PVTZ
    Blend: JUN-CC-PVTZ
  Basis Set: (JUN-CC-PVTZ AUX)
    Blend: JUN-CC-PVTZ-JKFIT
  @DF-RHF Final Energy:  -193.19138738604241
    Total Energy =                       -193.1913873860424076
  //            Monomer B HF           //
    Molecular point group: c1

    Geometry (in Angstrom), charge = 0, multiplicity = 1:

       Center              X                  Y                   Z               Mass
    ------------   -----------------  -----------------  -----------------  -----------------
      Gh(C)           2.455520325145     0.593868827786     0.151039852277    12.000000000000
      Gh(C)           1.549214325145    -0.251281172214     1.032514852277    12.000000000000
      Gh(H)           1.875774325145     1.433630827786    -0.242053147723     1.007825032230
      Gh(H)           3.244184325145     1.021619827786     0.775905852277     1.007825032230
      Gh(O)           0.443679325145    -0.793812172214     0.320902852277    15.994914619570
      Gh(H)           2.103612325145    -1.106847172214     1.421811852277     1.007825032230
      Gh(H)           1.203361325145     0.338707827786     1.887767852277     1.007825032230
      Gh(H)          -0.123062674855    -0.052101172214     0.051325852277     1.007825032230
      Gh(C)           3.062920325145    -0.207717172214    -0.992417147723    12.000000000000
      Gh(H)           3.684690325145     0.418251827786    -1.631601147723     1.007825032230
      Gh(H)           3.685035325145    -1.016001172214    -0.605392147723     1.007825032230
      Gh(H)           2.280098325145    -0.653887172214    -1.603092147723     1.007825032230
         C           -2.957100674855    -0.899655172214    -0.441149147723    12.000000000000
         C           -2.684513674855     0.393262827786     0.298099852277    12.000000000000
         O           -1.583322674855     1.120055827786    -0.270940147723    15.994914619570
         H           -3.243280674855    -0.701685172214    -1.475199147723     1.007825032230
         H           -3.776044674855    -1.439480172214     0.034511852277     1.007825032230
         H           -2.070699674855    -1.531551172214    -0.435564147723     1.007825032230
         H           -3.571508674855     1.029963827786     0.321538852277     1.007825032230
         H           -2.384718674855     0.192782827786     1.324414852277     1.007825032230
         H           -1.800095674855     1.312519827786    -1.189898147723     1.007825032230

  Charge       = 0
  Multiplicity = 1
  Basis Set: JUN-CC-PVTZ
    Blend: JUN-CC-PVTZ
  Basis Set: (JUN-CC-PVTZ AUX)
    Blend: JUN-CC-PVTZ-JKFIT

    Orbital Energies [Eh]
    ---------------------

    Doubly Occupied:

       1A    -20.554065     2A    -11.274695     3A    -11.218938
       4A     -1.351127     5A     -1.015108     6A     -0.848052
       7A     -0.683499     8A     -0.620985     9A     -0.607949
      10A     -0.545271    11A     -0.524875    12A     -0.484174
      13A     -0.444871

  @DF-RHF Final Energy:  -154.14412865948148

   => Energetics <=

    Nuclear Repulsion Energy =             81.6435637075598777
    One-Electron Energy =                -371.2281653859032531
    Two-Electron Energy =                 135.4404730188618657
    Total Energy =                       -154.1441286594814812

  Dipole Moment: [D]
     X:    -1.5970      Y:    -0.6584      Z:    -0.7673     Total:     1.8902

    SAPT Results
  --------------------------------------------------------------------------------------------------------
    Electrostatics                -16.12331601 [mEh]     -10.11753354 [kcal/mol]     -42.33176034 [kJ/mol]
      Elst10,r                    -16.12331601 [mEh]     -10.11753354 [kcal/mol]     -42.33176034 [kJ/mol]

    Exchange                       15.85501721 [mEh]       9.94917351 [kcal/mol]      41.62734195 [kJ/mol]
      Exch10                       15.85501721 [mEh]       9.94917351 [kcal/mol]      41.62734195 [kJ/mol]
      Exch10(S^2)                  15.72398124 [mEh]       9.86694719 [kcal/mol]      41.28330705 [kJ/mol]

    Induction                      -5.01985606 [mEh]      -3.15000724 [kcal/mol]     -13.17963028 [kJ/mol]
      Ind20,r                      -7.22590948 [mEh]      -4.53432666 [kcal/mol]     -18.97162273 [kJ/mol]
      Exch-Ind20,r                  4.30209902 [mEh]       2.69960789 [kcal/mol]      11.29515943 [kJ/mol]
      delta HF,r (2)               -2.09604560 [mEh]      -1.31528847 [kcal/mol]      -5.50316697 [kJ/mol]

    Dispersion                     -6.68330047 [mEh]      -4.19383436 [kcal/mol]     -17.54700297 [kJ/mol]
      Disp20                       -7.90820484 [mEh]      -4.96247346 [kcal/mol]     -20.76298895 [kJ/mol]
      Exch-Disp20                   1.22490437 [mEh]       0.76863910 [kcal/mol]       3.21598598 [kJ/mol]
      Disp20 (SS)                  -3.95410242 [mEh]      -2.48123673 [kcal/mol]     -10.38149447 [kJ/mol]
      Disp20 (OS)                  -3.95410242 [mEh]      -2.48123673 [kcal/mol]     -10.38149447 [kJ/mol]
      Exch-Disp20 (SS)              0.77137248 [mEh]       0.48404354 [kcal/mol]       2.02523816 [kJ/mol]
      Exch-Disp20 (OS)              0.45353189 [mEh]       0.28459556 [kcal/mol]       1.19074783 [kJ/mol]

  Total HF                         -5.28815486 [mEh]      -3.31836727 [kcal/mol]     -13.88404867 [kJ/mol]
  Total SAPT0                     -11.97145533 [mEh]      -7.51220163 [kcal/mol]     -31.43105164 [kJ/mol]

  Special recipe for scaled SAPT0 (see Manual):
    Electrostatics sSAPT0         -16.12331601 [mEh]     -10.11753354 [kcal/mol]     -42.33176034 [kJ/mol]
    Exchange sSAPT0                15.85501721 [mEh]       9.94917351 [kcal/mol]      41.62734195 [kJ/mol]
    Induction sSAPT0               -4.91140249 [mEh]      -3.08195159 [kcal/mol]     -12.89488547 [kJ/mol]
    Dispersion sSAPT0              -6.65242130 [mEh]      -4.17445739 [kcal/mol]     -17.46592972 [kJ/mol]
  Total sSAPT0                    -11.83212259 [mEh]      -7.42476902 [kcal/mol]     -31.06523358 [kJ/mol]
  --------------------------------------------------------------------------------------------------------

*** Psi4 exiting successfully. Buy a developer a beer!
