                               Psi4 1.3.2 release

  ==> Input File <==

--------------------------------------------------------------------------
# Any line starting with the # character is a comment line
#! Sample  computation

memory 22 gb

molecule Dimer {

0 1
 C   2.38723200    0.70481300   -0.59504900
 C   1.82132500   -0.65421500   -0.24126800
 H   3.11631400    1.02685000    0.14992700
 H   1.58904600    1.44306300   -0.64882000
 H   2.89223700    0.66242100   -1.56022500
 O   1.11029100   -0.63632100    1.00688900
 H   1.08329800   -0.96623400   -0.97742300
 H   2.60639500   -1.41264400   -0.20592300
 H   1.72667800   -0.36042600    1.69433300

 --
0 1
 C   -2.18408100   -0.87714400   -0.58928300
 C   -2.25493800    0.42116100    0.19403100
 H   -1.46851900   -1.56012000   -0.12993000
 H   -1.86990300   -0.68199700   -1.61390500
 H   -3.15740700   -1.36901400   -0.61101200
 O   -1.01149300    1.11071100    0.20736700
 H   -2.96955200    1.10314300   -0.26508600
 H   -2.59687900    0.22496800    1.21528400
 H   -0.35931700    0.52717700    0.62814400

units angstrom

no_reorient
symmetry c1
}

set globals{
  basis jun-cc-pVTZ
  scf_type DF
  freeze_core True
}

energy('sapt0')

--------------------------------------------------------------------------

  //              Dimer HF             //
    Molecular point group: c1
  Charge       = 0
  Multiplicity = 1
  Basis Set: JUN-CC-PVTZ
    Blend: JUN-CC-PVTZ
  Basis Set: (JUN-CC-PVTZ AUX)
    Blend: JUN-CC-PVTZ-JKFIT
  @DF-RHF Final Energy:  -308.29308322942302
    Total Energy =                       -308.2930832294230186
  //            Monomer A HF           //
    Molecular point group: c1
  Multiplicity = 1
  Basis Set: JUN-CC-PVTZ
    Blend: JUN-CC-PVTZ
  Basis Set: (JUN-CC-PVTZ AUX)
    Blend: JUN-CC-PVTZ-JKFIT
  @DF-RHF Final Energy:  -154.14414312984206
    Total Energy =                       -154.1441431298420639
  //            Monomer B HF           //
    Molecular point group: c1

    Geometry (in Angstrom), charge = 0, multiplicity = 1:

       Center              X                  Y                   Z               Mass
    ------------   -----------------  -----------------  -----------------  -----------------
      Gh(C)           2.393620228943     0.690155356394    -0.620029164292    12.000000000000
      Gh(C)           1.827713228943    -0.668872643606    -0.266248164292    12.000000000000
      Gh(H)           3.122702228943     1.012192356394     0.124946835708     1.007825032230
      Gh(H)           1.595434228943     1.428405356394    -0.673800164292     1.007825032230
      Gh(H)           2.898625228943     0.647763356394    -1.585205164292     1.007825032230
      Gh(O)           1.116679228943    -0.650978643606     0.981908835708    15.994914619570
      Gh(H)           1.089686228943    -0.980891643606    -1.002403164292     1.007825032230
      Gh(H)           2.612783228943    -1.427301643606    -0.230903164292     1.007825032230
      Gh(H)           1.733066228943    -0.375083643606     1.669352835708     1.007825032230
         C           -2.177692771057    -0.891801643606    -0.614263164292    12.000000000000
         C           -2.248549771057     0.406503356394     0.169050835708    12.000000000000
         H           -1.462130771057    -1.574777643606    -0.154910164292     1.007825032230
         H           -1.863514771057    -0.696654643606    -1.638885164292     1.007825032230
         H           -3.151018771057    -1.383671643606    -0.635992164292     1.007825032230
         O           -1.005104771057     1.096053356394     0.182386835708    15.994914619570
         H           -2.963163771057     1.088485356394    -0.290066164292     1.007825032230
         H           -2.590490771057     0.210310356394     1.190303835708     1.007825032230
         H           -0.352928771057     0.512519356394     0.603163835708     1.007825032230

  Charge       = 0
  Multiplicity = 1
  Basis Set: JUN-CC-PVTZ
    Blend: JUN-CC-PVTZ
  Basis Set: (JUN-CC-PVTZ AUX)
    Blend: JUN-CC-PVTZ-JKFIT

    Orbital Energies [Eh]
    ---------------------

    Doubly Occupied:

       1A    -20.556601     2A    -11.274080     3A    -11.218073
       4A     -1.355840     5A     -1.013014     6A     -0.847352
       7A     -0.685739     8A     -0.623630     9A     -0.607124
      10A     -0.545155    11A     -0.526649    12A     -0.482588
      13A     -0.443193

  @DF-RHF Final Energy:  -154.14407543422257

   => Energetics <=

    Nuclear Repulsion Energy =             81.8005162829150549
    One-Electron Energy =                -371.5311052356501023
    Two-Electron Energy =                 135.5865135185124757
    Total Energy =                       -154.1440754342225716

  Dipole Moment: [D]
     X:    -0.4130      Y:    -1.7189      Z:     0.5421     Total:     1.8491

    SAPT Results
  --------------------------------------------------------------------------------------------------------
    Electrostatics                -16.18832102 [mEh]     -10.15832480 [kcal/mol]     -42.50243097 [kJ/mol]
      Elst10,r                    -16.18832102 [mEh]     -10.15832480 [kcal/mol]     -42.50243097 [kJ/mol]

    Exchange                       16.25827164 [mEh]      10.20221948 [kcal/mol]      42.68608632 [kJ/mol]
      Exch10                       16.25827164 [mEh]      10.20221948 [kcal/mol]      42.68608632 [kJ/mol]
      Exch10(S^2)                  16.13114797 [mEh]      10.12244818 [kcal/mol]      42.35232317 [kJ/mol]

    Induction                      -4.93461599 [mEh]      -3.09651828 [kcal/mol]     -12.95583249 [kJ/mol]
      Ind20,r                      -7.28999035 [mEh]      -4.57453801 [kcal/mol]     -19.13986703 [kJ/mol]
      Exch-Ind20,r                  4.42372672 [mEh]       2.77593043 [kcal/mol]      11.61449290 [kJ/mol]
      delta HF,r (2)               -2.06835236 [mEh]      -1.29791070 [kcal/mol]      -5.43045836 [kJ/mol]

    Dispersion                     -7.39747244 [mEh]      -4.64198404 [kcal/mol]     -19.42206120 [kJ/mol]
      Disp20                       -8.69364852 [mEh]      -5.45534681 [kcal/mol]     -22.82517103 [kJ/mol]
      Exch-Disp20                   1.29617608 [mEh]       0.81336277 [kcal/mol]       3.40310983 [kJ/mol]
      Disp20 (SS)                  -4.34682426 [mEh]      -2.72767340 [kcal/mol]     -11.41258552 [kJ/mol]
      Disp20 (OS)                  -4.34682426 [mEh]      -2.72767340 [kcal/mol]     -11.41258552 [kJ/mol]
      Exch-Disp20 (SS)              0.81750132 [mEh]       0.51298982 [kcal/mol]       2.14634943 [kJ/mol]
      Exch-Disp20 (OS)              0.47867476 [mEh]       0.30037295 [kcal/mol]       1.25676040 [kJ/mol]

  Total HF                         -4.86466536 [mEh]      -3.05262360 [kcal/mol]     -12.77217714 [kJ/mol]
  Total SAPT0                     -12.26213779 [mEh]      -7.69460763 [kcal/mol]     -32.19423834 [kJ/mol]

  Special recipe for scaled SAPT0 (see Manual):
    Electrostatics sSAPT0         -16.18832102 [mEh]     -10.15832480 [kcal/mol]     -42.50243097 [kJ/mol]
    Exchange sSAPT0                16.25827164 [mEh]      10.20221948 [kcal/mol]      42.68608632 [kJ/mol]
    Induction sSAPT0               -4.82920431 [mEh]      -3.03037146 [kcal/mol]     -12.67907417 [kJ/mol]
    Dispersion sSAPT0              -7.36658624 [mEh]      -4.62260265 [kcal/mol]     -19.34096951 [kJ/mol]
  Total sSAPT0                    -12.12583992 [mEh]      -7.60907943 [kcal/mol]     -31.83638833 [kJ/mol]
  --------------------------------------------------------------------------------------------------------

*** Psi4 exiting successfully. Buy a developer a beer!
