                               Psi4 1.3.2 release

  ==> Input File <==

--------------------------------------------------------------------------
# Any line starting with the # character is a comment line
#! Sample  computation

memory 22 gb

molecule Dimer {
0 1
 C -2.278410   -0.539836   -0.653203
 C -1.931968   -1.276555    0.633806
 H -1.428933   -0.609795   -1.341059
 H -3.103457   -1.083827   -1.123386
 O -0.741018   -0.818726    1.261832
 H -2.730798   -1.133028    1.363956
 H -1.863903   -2.350465    0.428083
 H -0.004440   -1.026838    0.663880
 C -2.687158    0.921420   -0.471610
 H -3.159278    1.268561   -1.393905
 H -3.455289    0.976792    0.305237
 C -1.537338    1.861296   -0.121250
 H -0.769959    1.826796   -0.897662
 H -1.886405    2.891801   -0.047911
 H -1.072988    1.578322    0.820184

 --
0 1
 C  3.043233    0.429577   -0.137891
 C  2.089751   -0.242892   -1.107808
 H  3.809535   -0.291632    0.162843
 H  3.564260    1.223217   -0.679412
 O  1.416416   -1.371351   -0.532141
 H  1.292505    0.443428   -1.392748
 H  2.613384   -0.551886   -2.015737
 H  2.085078   -2.010460   -0.261196
 C  2.340764    1.000466    1.087303
 H  1.817253    0.225171    1.644101
 H  3.054228    1.476602    1.758471
 H  1.602786    1.746994    0.792654

units angstrom

no_reorient
symmetry c1
}

set globals{
  basis jun-cc-pvtz
}

energy('sapt0')

--------------------------------------------------------------------------

  //              Dimer HF             //
    Molecular point group: c1
  Charge       = 0
  Multiplicity = 1
  Basis Set: JUN-CC-PVTZ
    Blend: JUN-CC-PVTZ
  Basis Set: (JUN-CC-PVTZ AUX)
    Blend: JUN-CC-PVTZ-JKFIT
  @DF-RHF Final Energy:  -425.43171708712390
    Total Energy =                       -425.4317170871238432
  //            Monomer A HF           //
    Molecular point group: c1
  Multiplicity = 1
  Basis Set: JUN-CC-PVTZ
    Blend: JUN-CC-PVTZ
  Basis Set: (JUN-CC-PVTZ AUX)
    Blend: JUN-CC-PVTZ-JKFIT
  @DF-RHF Final Energy:  -232.23586863098680
    Total Energy =                       -232.2358686309868290
  //            Monomer B HF           //
    Molecular point group: c1

    Geometry (in Angstrom), charge = 0, multiplicity = 1:

       Center              X                  Y                   Z               Mass
    ------------   -----------------  -----------------  -----------------  -----------------
      Gh(C)          -2.275695075727    -0.505894202225    -0.662152523937    12.000000000000
      Gh(C)          -1.929253075727    -1.242613202225     0.624856476063    12.000000000000
      Gh(H)          -1.426218075727    -0.575853202225    -1.350008523937     1.007825032230
      Gh(H)          -3.100742075727    -1.049885202225    -1.132335523937     1.007825032230
      Gh(O)          -0.738303075727    -0.784784202225     1.252882476063    15.994914619570
      Gh(H)          -2.728083075727    -1.099086202225     1.355006476063     1.007825032230
      Gh(H)          -1.861188075727    -2.316523202225     0.419133476063     1.007825032230
      Gh(H)          -0.001725075727    -0.992896202225     0.654930476063     1.007825032230
      Gh(C)          -2.684443075727     0.955361797775    -0.480559523937    12.000000000000
      Gh(H)          -3.156563075727     1.302502797775    -1.402854523937     1.007825032230
      Gh(H)          -3.452574075727     1.010733797775     0.296287476063     1.007825032230
      Gh(C)          -1.534623075727     1.895237797775    -0.130199523937    12.000000000000
      Gh(H)          -0.767244075727     1.860737797775    -0.906611523937     1.007825032230
      Gh(H)          -1.883690075727     2.925742797775    -0.056860523937     1.007825032230
      Gh(H)          -1.070273075727     1.612263797775     0.811234476063     1.007825032230
         C            3.045947924273     0.463518797775    -0.146840523937    12.000000000000
         C            2.092465924273    -0.208950202225    -1.116757523937    12.000000000000
         H            3.812249924273    -0.257690202225     0.153893476063     1.007825032230
         H            3.566974924273     1.257158797775    -0.688361523937     1.007825032230
         O            1.419130924273    -1.337409202225    -0.541090523937    15.994914619570
         H            1.295219924273     0.477369797775    -1.401697523937     1.007825032230
         H            2.616098924273    -0.517944202225    -2.024686523937     1.007825032230
         H            2.087792924273    -1.976518202225    -0.270145523937     1.007825032230
         C            2.343478924273     1.034407797775     1.078353476063    12.000000000000
         H            1.819967924273     0.259112797775     1.635151476063     1.007825032230
         H            3.056942924273     1.510543797775     1.749521476063     1.007825032230
         H            1.605500924273     1.780935797775     0.783704476063     1.007825032230

  Charge       = 0
  Multiplicity = 1
  Basis Set: JUN-CC-PVTZ
    Blend: JUN-CC-PVTZ
  Basis Set: (JUN-CC-PVTZ AUX)
    Blend: JUN-CC-PVTZ-JKFIT

    Orbital Energies [Eh]
    ---------------------

    Doubly Occupied:

       1A    -20.553599     2A    -11.271623     3A    -11.223530
       4A    -11.210380     5A     -1.351707     6A     -1.052257
       7A     -0.921007     8A     -0.812368     9A     -0.672300
      10A     -0.636916    11A     -0.627141    12A     -0.562992
      13A     -0.533431    14A     -0.520650    15A     -0.485345
      16A     -0.472089    17A     -0.438178

  @DF-RHF Final Energy:  -193.19163070721129

   => Energetics <=

    Nuclear Repulsion Energy =            132.5425232326570608
    One-Electron Energy =                -524.7772805177439750
    Two-Electron Energy =                 199.0431265778756256
    Total Energy =                       -193.1916307072112886

  Dipole Moment: [D]
     X:     1.8075      Y:     0.3581      Z:    -0.1135     Total:     1.8461

    SAPT Results
  --------------------------------------------------------------------------------------------------------
    Electrostatics                -16.11690453 [mEh]     -10.11351028 [kcal/mol]     -42.31492700 [kJ/mol]
      Elst10,r                    -16.11690453 [mEh]     -10.11351028 [kcal/mol]     -42.31492700 [kJ/mol]

    Exchange                       17.17106567 [mEh]      10.77500638 [kcal/mol]      45.08262671 [kJ/mol]
      Exch10                       17.17106567 [mEh]      10.77500638 [kcal/mol]      45.08262671 [kJ/mol]
      Exch10(S^2)                  17.04232811 [mEh]      10.69422235 [kcal/mol]      44.74462630 [kJ/mol]

    Induction                      -5.27191007 [mEh]      -3.30817351 [kcal/mol]     -13.84139798 [kJ/mol]
      Ind20,r                      -7.21535016 [mEh]      -4.52770058 [kcal/mol]     -18.94389923 [kJ/mol]
      Exch-Ind20,r                  4.20389505 [mEh]       2.63798397 [kcal/mol]      11.03732492 [kJ/mol]
      delta HF,r (2)               -2.26045496 [mEh]      -1.41845690 [kcal/mol]      -5.93482368 [kJ/mol]

    Dispersion                     -9.14300984 [mEh]      -5.73732529 [kcal/mol]     -24.00496903 [kJ/mol]
      Disp20                      -10.51287780 [mEh]      -6.59693042 [kcal/mol]     -27.60155686 [kJ/mol]
      Exch-Disp20                   1.36986796 [mEh]       0.85960512 [kcal/mol]       3.59658783 [kJ/mol]
      Disp20 (SS)                  -5.25643890 [mEh]      -3.29846521 [kcal/mol]     -13.80077843 [kJ/mol]
      Disp20 (OS)                  -5.25643890 [mEh]      -3.29846521 [kcal/mol]     -13.80077843 [kJ/mol]
      Exch-Disp20 (SS)              0.86918091 [mEh]       0.54541925 [kcal/mol]       2.28203416 [kJ/mol]
      Exch-Disp20 (OS)              0.50068705 [mEh]       0.31418587 [kcal/mol]       1.31455367 [kJ/mol]

  Total HF                         -4.21774893 [mEh]      -2.64667741 [kcal/mol]     -11.07369828 [kJ/mol]
  Total SAPT0                     -13.36075877 [mEh]      -8.38400270 [kcal/mol]     -35.07866731 [kJ/mol]

  Special recipe for scaled SAPT0 (see Manual):
    Electrostatics sSAPT0         -16.11690453 [mEh]     -10.11351028 [kcal/mol]     -42.31492700 [kJ/mol]
    Exchange sSAPT0                17.17106567 [mEh]      10.77500638 [kcal/mol]      45.08262671 [kJ/mol]
    Induction sSAPT0               -5.17592007 [mEh]      -3.24793888 [kcal/mol]     -13.58937628 [kJ/mol]
    Dispersion sSAPT0              -9.11173084 [mEh]      -5.71769743 [kcal/mol]     -23.92284603 [kJ/mol]
  Total sSAPT0                    -13.23348977 [mEh]      -8.30414020 [kcal/mol]     -34.74452261 [kJ/mol]
  --------------------------------------------------------------------------------------------------------

*** Psi4 exiting successfully. Buy a developer a beer!
