                               Psi4 1.3.2 release

  ==> Input File <==

--------------------------------------------------------------------------
# Any line starting with the # character is a comment line
#! Sample  computation

memory 22 gb

molecule Dimer {

0 1
 C    2.73191000    0.41847000   -0.12436500
 C    1.66162300   -0.02873600   -1.10243400
 H    3.51669300   -0.34339300   -0.08440000
 H    3.19894900    1.31892100   -0.53128800
 O    1.03415100   -1.25943800   -0.71524100
 H    0.85167700    0.70027800   -1.13673400
 H    2.07349900   -0.12734800   -2.10979100
 H    1.71737300   -1.93618700   -0.65215100
 C    2.18584800    0.69158400    1.27107300
 H    2.97887500    1.01798800    1.94244800
 H    1.42467400    1.47146300    1.24052800
 H    1.72320100   -0.19623400    1.69803600

 --
0 1
 C    -2.30480700    0.12506100   -0.70920900
 C    -2.26806800   -0.81153400    0.48920000
 H    -1.52876400   -0.18274700   -1.41552900
 H    -3.26257200   -0.00390700   -1.22048300
 O    -1.03663100   -0.74738100    1.19600800
 H    -3.03937000   -0.52669400    1.20681700
 H    -2.47621200   -1.83708700    0.16656100
 H    -0.33682500   -1.02361800    0.58218800
 C    -2.11134400    1.58257800   -0.31160900
 H    -1.17363000    1.71062200    0.22753800
 H    -2.10229000    2.23692000   -1.18307100
 H    -2.91641700    1.91104900    0.34725900

units angstrom

no_reorient
symmetry c1
}

set globals{
  basis jun-cc-pVTZ
  scf_type DF
  freeze_core True
}

energy('sapt0')

--------------------------------------------------------------------------

  //              Dimer HF             //
    Molecular point group: c1
  Charge       = 0
  Multiplicity = 1
  Basis Set: JUN-CC-PVTZ
    Blend: JUN-CC-PVTZ
  Basis Set: (JUN-CC-PVTZ AUX)
    Blend: JUN-CC-PVTZ-JKFIT
  @DF-RHF Final Energy:  -386.38690153097980
    Total Energy =                       -386.3869015309797987
  //            Monomer A HF           //
    Molecular point group: c1
  Multiplicity = 1
  Basis Set: JUN-CC-PVTZ
    Blend: JUN-CC-PVTZ
  Basis Set: (JUN-CC-PVTZ AUX)
    Blend: JUN-CC-PVTZ-JKFIT
  @DF-RHF Final Energy:  -193.19160884492740
    Total Energy =                       -193.1916088449274014
  //            Monomer B HF           //
    Molecular point group: c1

    Geometry (in Angstrom), charge = 0, multiplicity = 1:

       Center              X                  Y                   Z               Mass
    ------------   -----------------  -----------------  -----------------  -----------------
      Gh(C)           2.737269737506     0.452995316956    -0.131961150754    12.000000000000
      Gh(C)           1.666982737506     0.005789316956    -1.110030150754    12.000000000000
      Gh(H)           3.522052737506    -0.308867683044    -0.091996150754     1.007825032230
      Gh(H)           3.204308737506     1.353446316956    -0.538884150754     1.007825032230
      Gh(O)           1.039510737506    -1.224912683044    -0.722837150754    15.994914619570
      Gh(H)           0.857036737506     0.734803316956    -1.144330150754     1.007825032230
      Gh(H)           2.078858737506    -0.092822683044    -2.117387150754     1.007825032230
      Gh(H)           1.722732737506    -1.901661683044    -0.659747150754     1.007825032230
      Gh(C)           2.191207737506     0.726109316956     1.263476849246    12.000000000000
      Gh(H)           2.984234737506     1.052513316956     1.934851849246     1.007825032230
      Gh(H)           1.430033737506     1.505988316956     1.232931849246     1.007825032230
      Gh(H)           1.728560737506    -0.161708683044     1.690439849246     1.007825032230
         C           -2.299447262494     0.159586316956    -0.716805150754    12.000000000000
         C           -2.262708262494    -0.777008683044     0.481603849246    12.000000000000
         H           -1.523404262494    -0.148221683044    -1.423125150754     1.007825032230
         H           -3.257212262494     0.030618316956    -1.228079150754     1.007825032230
         O           -1.031271262494    -0.712855683044     1.188411849246    15.994914619570
         H           -3.034010262494    -0.492168683044     1.199220849246     1.007825032230
         H           -2.470852262494    -1.802561683044     0.158964849246     1.007825032230
         H           -0.331465262494    -0.989092683044     0.574591849246     1.007825032230
         C           -2.105984262494     1.617103316956    -0.319205150754    12.000000000000
         H           -1.168270262494     1.745147316956     0.219941849246     1.007825032230
         H           -2.096930262494     2.271445316956    -1.190667150754     1.007825032230
         H           -2.911057262494     1.945574316956     0.339662849246     1.007825032230

  Charge       = 0
  Multiplicity = 1
  Basis Set: JUN-CC-PVTZ
    Blend: JUN-CC-PVTZ
  Basis Set: (JUN-CC-PVTZ AUX)
    Blend: JUN-CC-PVTZ-JKFIT

    Orbital Energies [Eh]
    ---------------------

    Doubly Occupied:

       1A    -20.556338     2A    -11.271200     3A    -11.222377
       4A    -11.209267     5A     -1.356453     6A     -1.050710
       7A     -0.919389     8A     -0.811176     9A     -0.674983
      10A     -0.638672    11A     -0.626473    12A     -0.565358
      13A     -0.531623    14A     -0.520557    15A     -0.484959
      16A     -0.471054    17A     -0.436677

  @DF-RHF Final Energy:  -193.19134387860277

   => Energetics <=

    Nuclear Repulsion Energy =            132.9103382356822465
    One-Electron Energy =                -525.5088290722924285
    Two-Electron Energy =                 199.4071469580073881
    Total Energy =                       -193.1913438786027655

  Dipole Moment: [D]
     X:    -0.2658      Y:    -0.3840      Z:    -1.7429     Total:     1.8044

    SAPT Results
  --------------------------------------------------------------------------------------------------------
    Electrostatics                -15.55979866 [mEh]      -9.76392107 [kcal/mol]     -40.85224575 [kJ/mol]
      Elst10,r                    -15.55979866 [mEh]      -9.76392107 [kcal/mol]     -40.85224575 [kJ/mol]

    Exchange                       16.64304566 [mEh]      10.44366882 [kcal/mol]      43.69631036 [kJ/mol]
      Exch10                       16.64304566 [mEh]      10.44366882 [kcal/mol]      43.69631036 [kJ/mol]
      Exch10(S^2)                  16.52405710 [mEh]      10.36900238 [kcal/mol]      43.38390595 [kJ/mol]

    Induction                      -5.03205445 [mEh]      -3.15766184 [kcal/mol]     -13.21165714 [kJ/mol]
      Ind20,r                      -7.06817684 [mEh]      -4.43534793 [kcal/mol]     -18.55749574 [kJ/mol]
      Exch-Ind20,r                  4.18528603 [mEh]       2.62630664 [kcal/mol]      10.98846697 [kJ/mol]
      delta HF,r (2)               -2.14916364 [mEh]      -1.34862055 [kcal/mol]      -5.64262837 [kJ/mol]

    Dispersion                     -8.99110500 [mEh]      -5.64200357 [kcal/mol]     -23.60614292 [kJ/mol]
      Disp20                      -10.34980740 [mEh]      -6.49460220 [kcal/mol]     -27.17341559 [kJ/mol]
      Exch-Disp20                   1.35870240 [mEh]       0.85259863 [kcal/mol]       3.56727266 [kJ/mol]
      Disp20 (SS)                  -5.17490370 [mEh]      -3.24730110 [kcal/mol]     -13.58670779 [kJ/mol]
      Disp20 (OS)                  -5.17490370 [mEh]      -3.24730110 [kcal/mol]     -13.58670779 [kJ/mol]
      Exch-Disp20 (SS)              0.85792210 [mEh]       0.53835424 [kcal/mol]       2.25247416 [kJ/mol]
      Exch-Disp20 (OS)              0.50078030 [mEh]       0.31424438 [kcal/mol]       1.31479851 [kJ/mol]

  Total HF                         -3.94880745 [mEh]      -2.47791408 [kcal/mol]     -10.36759253 [kJ/mol]
  Total SAPT0                     -12.93991245 [mEh]      -8.11991765 [kcal/mol]     -33.97373546 [kJ/mol]

  Special recipe for scaled SAPT0 (see Manual):
    Electrostatics sSAPT0         -15.55979866 [mEh]      -9.76392107 [kcal/mol]     -40.85224575 [kJ/mol]
    Exchange sSAPT0                16.64304566 [mEh]      10.44366882 [kcal/mol]      43.69631036 [kJ/mol]
    Induction sSAPT0               -4.94098799 [mEh]      -3.10051677 [kcal/mol]     -12.97256217 [kJ/mol]
    Dispersion sSAPT0              -8.96154138 [mEh]      -5.62345211 [kcal/mol]     -23.52852364 [kJ/mol]
  Total sSAPT0                    -12.81928236 [mEh]      -8.04422113 [kcal/mol]     -33.65702120 [kJ/mol]
  --------------------------------------------------------------------------------------------------------

*** Psi4 exiting successfully. Buy a developer a beer!
