                               Psi4 1.3.2 release

  ==> Input File <==

--------------------------------------------------------------------------
# Any line starting with the # character is a comment line
#! Sample  computation

memory 22 gb

molecule Dimer {
0 1
 C -1.955811    1.806094    0.339176
 C -1.902388    0.631483   -0.621336
 C -1.537887   -0.655117    0.063346
 O -1.278150   -0.789537    1.238765
 O -1.525015   -1.693069   -0.810347
 H -0.991970    1.955694    0.821208
 H -2.221326    2.717568   -0.193362
 H -2.693384    1.632664    1.120096
 H -1.171269    0.791732   -1.416443
 H -2.858741    0.473838   -1.123105
 H -1.267152   -2.472802   -0.293714

 --
0 1
 C   1.865092    2.043446   -0.317664
 H   0.963697    2.092884   -0.931121
 H   2.722015    2.158263   -0.982944
 H   1.852035    2.895486    0.361989
 C   1.938147    0.721305    0.436133
 H   2.840471    0.699898    1.053448
 H   1.092232    0.631252    1.122873
 C   1.947528   -0.482871   -0.497708
 H   2.798044   -0.401949   -1.180592
 H   1.051181   -0.461657   -1.124612
 C   2.013737   -1.803873    0.258740
 H   1.171855   -1.893224    0.946940
 H   1.997465   -2.656867   -0.420188
 H   2.929660   -1.864724    0.848061

units angstrom

no_reorient
symmetry c1
}

set globals{
  basis jun-cc-pvtz
}

energy('sapt0')

--------------------------------------------------------------------------

  //              Dimer HF             //
    Molecular point group: c1
  Charge       = 0
  Multiplicity = 1
  Basis Set: JUN-CC-PVTZ
    Blend: JUN-CC-PVTZ
  Basis Set: (JUN-CC-PVTZ AUX)
    Blend: JUN-CC-PVTZ-JKFIT
  @DF-RHF Final Energy:  -424.30494383709015
    Total Energy =                       -424.3049438370901498
  //            Monomer A HF           //
    Molecular point group: c1
  Multiplicity = 1
  Basis Set: JUN-CC-PVTZ
    Blend: JUN-CC-PVTZ
  Basis Set: (JUN-CC-PVTZ AUX)
    Blend: JUN-CC-PVTZ-JKFIT
  @DF-RHF Final Energy:  -266.95280745704247
    Total Energy =                       -266.9528074570424678
  //            Monomer B HF           //
    Molecular point group: c1

    Geometry (in Angstrom), charge = 0, multiplicity = 1:

       Center              X                  Y                   Z               Mass
    ------------   -----------------  -----------------  -----------------  -----------------
      Gh(C)          -1.894226222869     1.853296264000     0.328742674831    12.000000000000
      Gh(C)          -1.840803222869     0.678685264000    -0.631769325169    12.000000000000
      Gh(C)          -1.476302222869    -0.607914736000     0.052912674831    12.000000000000
      Gh(O)          -1.216565222869    -0.742334736000     1.228331674831    15.994914619570
      Gh(O)          -1.463430222869    -1.645866736000    -0.820780325169    15.994914619570
      Gh(H)          -0.930385222869     2.002896264000     0.810774674831     1.007825032230
      Gh(H)          -2.159741222869     2.764770264000    -0.203795325169     1.007825032230
      Gh(H)          -2.631799222869     1.679866264000     1.109662674831     1.007825032230
      Gh(H)          -1.109684222869     0.838934264000    -1.426876325169     1.007825032230
      Gh(H)          -2.797156222869     0.521040264000    -1.133538325169     1.007825032230
      Gh(H)          -1.205567222869    -2.425599736000    -0.304147325169     1.007825032230
         C            1.926676777131     2.090648264000    -0.328097325169    12.000000000000
         H            1.025281777131     2.140086264000    -0.941554325169     1.007825032230
         H            2.783599777131     2.205465264000    -0.993377325169     1.007825032230
         H            1.913619777131     2.942688264000     0.351555674831     1.007825032230
         C            1.999731777131     0.768507264000     0.425699674831    12.000000000000
         H            2.902055777131     0.747100264000     1.043014674831     1.007825032230
         H            1.153816777131     0.678454264000     1.112439674831     1.007825032230
         C            2.009112777131    -0.435668736000    -0.508141325169    12.000000000000
         H            2.859628777131    -0.354746736000    -1.191025325169     1.007825032230
         H            1.112765777131    -0.414454736000    -1.135045325169     1.007825032230
         C            2.075321777131    -1.756670736000     0.248306674831    12.000000000000
         H            1.233439777131    -1.846021736000     0.936506674831     1.007825032230
         H            2.059049777131    -2.609664736000    -0.430621325169     1.007825032230
         H            2.991244777131    -1.817521736000     0.837627674831     1.007825032230

  Charge       = 0
  Multiplicity = 1
  Basis Set: JUN-CC-PVTZ
    Blend: JUN-CC-PVTZ
  Basis Set: (JUN-CC-PVTZ AUX)
    Blend: JUN-CC-PVTZ-JKFIT

    Orbital Energies [Eh]
    ---------------------

    Doubly Occupied:

       1A    -11.213485     2A    -11.212839     3A    -11.207669
       4A    -11.207605     5A     -1.071317     6A     -0.980186
       7A     -0.860011     8A     -0.787626     9A     -0.638771
      10A     -0.584452    11A     -0.575444    12A     -0.566675
      13A     -0.514258    14A     -0.493828    15A     -0.469599
      16A     -0.461477    17A     -0.455813

  @DF-RHF Final Energy:  -157.35589494221111

   => Energetics <=

    Nuclear Repulsion Energy =            131.0812099666861457
    One-Electron Energy =                -470.2720985315106077
    Two-Electron Energy =                 181.8349936226133821
    Total Energy =                       -157.3558949422111084

  Dipole Moment: [D]
     X:     0.0052      Y:     0.0021      Z:    -0.0008     Total:     0.0057

    SAPT Results
  --------------------------------------------------------------------------------------------------------
    Electrostatics                 -3.02919501 [mEh]      -1.90084856 [kcal/mol]      -7.95315039 [kJ/mol]
      Elst10,r                     -3.02919501 [mEh]      -1.90084856 [kcal/mol]      -7.95315039 [kJ/mol]

    Exchange                        7.77203972 [mEh]       4.87702855 [kcal/mol]      20.40548747 [kJ/mol]
      Exch10                        7.77203972 [mEh]       4.87702855 [kcal/mol]      20.40548747 [kJ/mol]
      Exch10(S^2)                   7.76286059 [mEh]       4.87126856 [kcal/mol]      20.38138766 [kJ/mol]

    Induction                      -0.98428255 [mEh]      -0.61764662 [kcal/mol]      -2.58423348 [kJ/mol]
      Ind20,r                      -2.01173047 [mEh]      -1.26237993 [kcal/mol]      -5.28179761 [kJ/mol]
      Exch-Ind20,r                  1.51773026 [mEh]       0.95239012 [kcal/mol]       3.98480025 [kJ/mol]
      delta HF,r (2)               -0.49028234 [mEh]      -0.30765681 [kcal/mol]      -1.28723611 [kJ/mol]

    Dispersion                     -9.37285286 [mEh]      -5.88155396 [kcal/mol]     -24.60842178 [kJ/mol]
      Disp20                      -10.23995539 [mEh]      -6.42566902 [kcal/mol]     -26.88499917 [kJ/mol]
      Exch-Disp20                   0.86710253 [mEh]       0.54411505 [kcal/mol]       2.27657739 [kJ/mol]
      Disp20 (SS)                  -5.11997769 [mEh]      -3.21283451 [kcal/mol]     -13.44249959 [kJ/mol]
      Disp20 (OS)                  -5.11997769 [mEh]      -3.21283451 [kcal/mol]     -13.44249959 [kJ/mol]
      Exch-Disp20 (SS)              0.56390834 [mEh]       0.35385782 [kcal/mol]       1.48054113 [kJ/mol]
      Exch-Disp20 (OS)              0.30319420 [mEh]       0.19025723 [kcal/mol]       0.79603626 [kJ/mol]

  Total HF                          3.75856216 [mEh]       2.35853337 [kcal/mol]       9.86810360 [kJ/mol]
  Total SAPT0                      -5.61429069 [mEh]      -3.52302060 [kcal/mol]     -14.74031818 [kJ/mol]

  Special recipe for scaled SAPT0 (see Manual):
    Electrostatics sSAPT0          -3.02919501 [mEh]      -1.90084856 [kcal/mol]      -7.95315039 [kJ/mol]
    Exchange sSAPT0                 7.77203972 [mEh]       4.87702855 [kcal/mol]      20.40548747 [kJ/mol]
    Induction sSAPT0               -0.97889230 [mEh]      -0.61426419 [kcal/mol]      -2.57008137 [kJ/mol]
    Dispersion sSAPT0              -9.36977332 [mEh]      -5.87962153 [kcal/mol]     -24.60033647 [kJ/mol]
  Total sSAPT0                     -5.60582091 [mEh]      -3.51770573 [kcal/mol]     -14.71808076 [kJ/mol]
  --------------------------------------------------------------------------------------------------------

*** Psi4 exiting successfully. Buy a developer a beer!
