                               Psi4 1.3.2 release

  ==> Input File <==

--------------------------------------------------------------------------
# Any line starting with the # character is a comment line
#! Sample  computation

memory 22 gb

molecule Dimer {
0 1
 C 1.756067   -0.425335   -0.018818
 O 1.251445   -1.482393   -0.325358
 O 1.961056   -0.063489    1.273533
 H 1.635295   -0.803114    1.810243
 C 2.226865    0.638877   -0.960699
 H 2.051759    0.321932   -1.982485
 H 1.693646    1.565511   -0.755425
 H 3.287228    0.823770   -0.798824

 --
0 1
 C   -2.313197   -1.564669   -0.245841
 H   -1.469947   -1.938945   -0.826653
 H   -3.145296   -1.385947   -0.928472
 H   -2.614306   -2.346113    0.451502
 C   -1.927532   -0.282979    0.480712
 H   -2.757107    0.061392    1.104715
 H   -1.092546   -0.483941    1.157579
 C   -1.531387    0.831792   -0.479179
 H   -2.378865    1.058683   -1.131853
 H   -0.732548    0.468677   -1.131615
 C   -1.086351    2.096401    0.245553
 H   -0.233476    1.892237    0.895398
 H   -0.800307    2.883930   -0.452375
 H   -1.890328    2.484455    0.872494

units angstrom

no_reorient
symmetry c1
}

set globals{
  basis jun-cc-pvtz
}

energy('sapt0')

--------------------------------------------------------------------------

  //              Dimer HF             //
    Molecular point group: c1
  Charge       = 0
  Multiplicity = 1
  Basis Set: JUN-CC-PVTZ
    Blend: JUN-CC-PVTZ
  Basis Set: (JUN-CC-PVTZ AUX)
    Blend: JUN-CC-PVTZ-JKFIT
  @DF-RHF Final Energy:  -385.25728181281306
    Total Energy =                       -385.2572818128130621
  //            Monomer A HF           //
    Molecular point group: c1
  Multiplicity = 1
  Basis Set: JUN-CC-PVTZ
    Blend: JUN-CC-PVTZ
  Basis Set: (JUN-CC-PVTZ AUX)
    Blend: JUN-CC-PVTZ-JKFIT
  @DF-RHF Final Energy:  -227.90443486465648
    Total Energy =                       -227.9044348646564799
  //            Monomer B HF           //
    Molecular point group: c1

    Geometry (in Angstrom), charge = 0, multiplicity = 1:

       Center              X                  Y                   Z               Mass
    ------------   -----------------  -----------------  -----------------  -----------------
      Gh(C)           1.685242201719    -0.386734757630    -0.033191633549    12.000000000000
      Gh(O)           1.180620201719    -1.443792757630    -0.339731633549    15.994914619570
      Gh(O)           1.890231201719    -0.024888757630     1.259159366451    15.994914619570
      Gh(H)           1.564470201719    -0.764513757630     1.795869366451     1.007825032230
      Gh(C)           2.156040201719     0.677477242370    -0.975072633549    12.000000000000
      Gh(H)           1.980934201719     0.360532242370    -1.996858633549     1.007825032230
      Gh(H)           1.622821201719     1.604111242370    -0.769798633549     1.007825032230
      Gh(H)           3.216403201719     0.862370242370    -0.813197633549     1.007825032230
         C           -2.384021798281    -1.526068757630    -0.260214633549    12.000000000000
         H           -1.540771798281    -1.900344757630    -0.841026633549     1.007825032230
         H           -3.216120798281    -1.347346757630    -0.942845633549     1.007825032230
         H           -2.685130798281    -2.307512757630     0.437128366451     1.007825032230
         C           -1.998356798281    -0.244378757630     0.466338366451    12.000000000000
         H           -2.827931798281     0.099992242370     1.090341366451     1.007825032230
         H           -1.163370798281    -0.445340757630     1.143205366451     1.007825032230
         C           -1.602211798281     0.870392242370    -0.493552633549    12.000000000000
         H           -2.449689798281     1.097283242370    -1.146226633549     1.007825032230
         H           -0.803372798281     0.507277242370    -1.145988633549     1.007825032230
         C           -1.157175798281     2.135001242370     0.231179366451    12.000000000000
         H           -0.304300798281     1.930837242370     0.881024366451     1.007825032230
         H           -0.871131798281     2.922530242370    -0.466748633549     1.007825032230
         H           -1.961152798281     2.523055242370     0.858120366451     1.007825032230

  Charge       = 0
  Multiplicity = 1
  Basis Set: JUN-CC-PVTZ
    Blend: JUN-CC-PVTZ
  Basis Set: (JUN-CC-PVTZ AUX)
    Blend: JUN-CC-PVTZ-JKFIT

    Orbital Energies [Eh]
    ---------------------

    Doubly Occupied:

       1A    -11.213305     2A    -11.212655     3A    -11.207789
       4A    -11.207465     5A     -1.071508     6A     -0.980239
       7A     -0.860121     8A     -0.787391     9A     -0.639205
      10A     -0.583986    11A     -0.575648    12A     -0.567165
      13A     -0.513857    14A     -0.494394    15A     -0.469360
      16A     -0.461624    17A     -0.455652

  @DF-RHF Final Energy:  -157.35585179479457

   => Energetics <=

    Nuclear Repulsion Energy =            131.1090972334766320
    One-Electron Energy =                -470.3271682325629968
    Two-Electron Energy =                 181.8622192042917902
    Total Energy =                       -157.3558517947945745

  Dipole Moment: [D]
     X:    -0.0054      Y:    -0.0003      Z:     0.0023     Total:     0.0059

    SAPT Results
  --------------------------------------------------------------------------------------------------------
    Electrostatics                 -2.33088332 [mEh]      -1.46265137 [kcal/mol]      -6.11973331 [kJ/mol]
      Elst10,r                     -2.33088332 [mEh]      -1.46265137 [kcal/mol]      -6.11973331 [kJ/mol]

    Exchange                        6.18483761 [mEh]       3.88104419 [kcal/mol]      16.23828890 [kJ/mol]
      Exch10                        6.18483761 [mEh]       3.88104419 [kcal/mol]      16.23828890 [kJ/mol]
      Exch10(S^2)                   6.17749909 [mEh]       3.87643921 [kcal/mol]      16.21902164 [kJ/mol]

    Induction                      -0.84910765 [mEh]      -0.53282309 [kcal/mol]      -2.22933183 [kJ/mol]
      Ind20,r                      -1.78284122 [mEh]      -1.11874976 [kcal/mol]      -4.68084898 [kJ/mol]
      Exch-Ind20,r                  1.28901391 [mEh]       0.80886844 [kcal/mol]       3.38430556 [kJ/mol]
      delta HF,r (2)               -0.35528034 [mEh]      -0.22294178 [kcal/mol]      -0.93278841 [kJ/mol]

    Dispersion                     -7.64351891 [mEh]      -4.79638053 [kcal/mol]     -20.06805614 [kJ/mol]
      Disp20                       -8.33990768 [mEh]      -5.23337108 [kcal/mol]     -21.89642460 [kJ/mol]
      Exch-Disp20                   0.69638877 [mEh]       0.43699055 [kcal/mol]       1.82836846 [kJ/mol]
      Disp20 (SS)                  -4.16995384 [mEh]      -2.61668554 [kcal/mol]     -10.94821230 [kJ/mol]
      Disp20 (OS)                  -4.16995384 [mEh]      -2.61668554 [kcal/mol]     -10.94821230 [kJ/mol]
      Exch-Disp20 (SS)              0.45239901 [mEh]       0.28388467 [kcal/mol]       1.18777345 [kJ/mol]
      Exch-Disp20 (OS)              0.24398975 [mEh]       0.15310588 [kcal/mol]       0.64059501 [kJ/mol]

  Total HF                          3.00484664 [mEh]       1.88556973 [kcal/mol]       7.88922376 [kJ/mol]
  Total SAPT0                      -4.63867227 [mEh]      -2.91081080 [kcal/mol]     -12.17883238 [kJ/mol]

  Special recipe for scaled SAPT0 (see Manual):
    Electrostatics sSAPT0          -2.33088332 [mEh]      -1.46265137 [kcal/mol]      -6.11973331 [kJ/mol]
    Exchange sSAPT0                 6.18483761 [mEh]       3.88104419 [kcal/mol]      16.23828890 [kJ/mol]
    Induction sSAPT0               -0.84450837 [mEh]      -0.52993700 [kcal/mol]      -2.21725641 [kJ/mol]
    Dispersion sSAPT0              -7.64103415 [mEh]      -4.79482132 [kcal/mol]     -20.06153240 [kJ/mol]
  Total sSAPT0                     -4.63158823 [mEh]      -2.90636549 [kcal/mol]     -12.16023322 [kJ/mol]
  --------------------------------------------------------------------------------------------------------

*** Psi4 exiting successfully. Buy a developer a beer!
