                               Psi4 1.3.2 release

  ==> Input File <==

--------------------------------------------------------------------------
# Any line starting with the # character is a comment line
#! Sample  computation

memory 22 gb

molecule Dimer {
0 1
 C 2.416505   -0.775445   -0.045405
 O 2.541447    0.489039   -0.483786
 O 1.500408   -1.195082    0.618781
 H 3.269936   -1.369035   -0.382390
 H 1.762132    0.977307   -0.166369

 --
0 1
 C   -2.587708   -1.275313   -0.358738
 H   -1.836606   -1.871213   -0.878543
 H   -3.270888   -0.870628   -1.106849
 H   -3.155677   -1.943667    0.287606
 C   -1.925542   -0.156924    0.435209
 H   -2.683256    0.412139    0.981081
 H   -1.249486   -0.583991    1.179495
 C   -1.133443    0.791819   -0.454463
 H   -1.797254    1.232770   -1.202873
 H   -0.387852    0.211965   -1.005382
 C   -0.455832    1.898761    0.344967
 H    0.180813    1.475131    1.125950
 H    0.144168    2.556296   -0.288318
 H   -1.194754    2.523880    0.847214

units angstrom

no_reorient
symmetry c1
}

set globals{
  basis jun-cc-pvtz
}

energy('sapt0')

--------------------------------------------------------------------------

  //              Dimer HF             //
    Molecular point group: c1
  Charge       = 0
  Multiplicity = 1
  Basis Set: JUN-CC-PVTZ
    Blend: JUN-CC-PVTZ
  Basis Set: (JUN-CC-PVTZ AUX)
    Blend: JUN-CC-PVTZ-JKFIT
  @DF-RHF Final Energy:  -346.19733710539242
    Total Energy =                       -346.1973371053924211
  //            Monomer A HF           //
    Molecular point group: c1
  Multiplicity = 1
  Basis Set: JUN-CC-PVTZ
    Blend: JUN-CC-PVTZ
  Basis Set: (JUN-CC-PVTZ AUX)
    Blend: JUN-CC-PVTZ-JKFIT
  @DF-RHF Final Energy:  -188.84289244701750
    Total Energy =                       -188.8428924470175048
  //            Monomer B HF           //
    Molecular point group: c1

    Geometry (in Angstrom), charge = 0, multiplicity = 1:

       Center              X                  Y                   Z               Mass
    ------------   -----------------  -----------------  -----------------  -----------------
      Gh(C)           2.319292882204    -0.749256072981    -0.051207319909    12.000000000000
      Gh(O)           2.444234882204     0.515227927019    -0.489588319909    15.994914619570
      Gh(O)           1.403195882204    -1.168893072981     0.612978680091    15.994914619570
      Gh(H)           3.172723882204    -1.342846072981    -0.388192319909     1.007825032230
      Gh(H)           1.664919882204     1.003495927019    -0.172171319909     1.007825032230
         C           -2.684920117796    -1.249124072981    -0.364540319909    12.000000000000
         H           -1.933818117796    -1.845024072981    -0.884345319909     1.007825032230
         H           -3.368100117796    -0.844439072981    -1.112651319909     1.007825032230
         H           -3.252889117796    -1.917478072981     0.281803680091     1.007825032230
         C           -2.022754117796    -0.130735072981     0.429406680091    12.000000000000
         H           -2.780468117796     0.438327927019     0.975278680091     1.007825032230
         H           -1.346698117796    -0.557802072981     1.173692680091     1.007825032230
         C           -1.230655117796     0.818007927019    -0.460265319909    12.000000000000
         H           -1.894466117796     1.258958927019    -1.208675319909     1.007825032230
         H           -0.485064117796     0.238153927019    -1.011184319909     1.007825032230
         C           -0.553044117796     1.924949927019     0.339164680091    12.000000000000
         H            0.083600882204     1.501319927019     1.120147680091     1.007825032230
         H            0.046955882204     2.582484927019    -0.294120319909     1.007825032230
         H           -1.291966117796     2.550068927019     0.841411680091     1.007825032230

  Charge       = 0
  Multiplicity = 1
  Basis Set: JUN-CC-PVTZ
    Blend: JUN-CC-PVTZ
  Basis Set: (JUN-CC-PVTZ AUX)
    Blend: JUN-CC-PVTZ-JKFIT

    Orbital Energies [Eh]
    ---------------------

    Doubly Occupied:

       1A    -11.213293     2A    -11.212654     3A    -11.207979
       4A    -11.207385     5A     -1.071822     6A     -0.979892
       7A     -0.859904     8A     -0.787621     9A     -0.639622
      10A     -0.584227    11A     -0.575697    12A     -0.566139
      13A     -0.514199    14A     -0.493626    15A     -0.469503
      16A     -0.462360    17A     -0.455361

  @DF-RHF Final Energy:  -157.35568806593699

   => Energetics <=

    Nuclear Repulsion Energy =            131.1544521418454110
    One-Electron Energy =                -470.4177120514423223
    Two-Electron Energy =                 181.9075718436599232
    Total Energy =                       -157.3556880659369881

  Dipole Moment: [D]
     X:    -0.0119      Y:    -0.0007      Z:     0.0028     Total:     0.0122

    SAPT Results
  --------------------------------------------------------------------------------------------------------
    Electrostatics                 -3.13694902 [mEh]      -1.96846523 [kcal/mol]      -8.23605853 [kJ/mol]
      Elst10,r                     -3.13694902 [mEh]      -1.96846523 [kcal/mol]      -8.23605853 [kJ/mol]

    Exchange                        6.53186413 [mEh]       4.09880662 [kcal/mol]      17.14940691 [kJ/mol]
      Exch10                        6.53186413 [mEh]       4.09880662 [kcal/mol]      17.14940691 [kJ/mol]
      Exch10(S^2)                   6.51118655 [mEh]       4.08583125 [kcal/mol]      17.09511794 [kJ/mol]

    Induction                      -2.15150755 [mEh]      -1.35009137 [kcal/mol]      -5.64878228 [kJ/mol]
      Ind20,r                      -2.90444869 [mEh]      -1.82256907 [kcal/mol]      -7.62562898 [kJ/mol]
      Exch-Ind20,r                  1.41178891 [mEh]       0.88591091 [kcal/mol]       3.70665127 [kJ/mol]
      delta HF,r (2)               -0.65884777 [mEh]      -0.41343321 [kcal/mol]      -1.72980457 [kJ/mol]

    Dispersion                     -5.97549655 [mEh]      -3.74968069 [kcal/mol]     -15.68866402 [kJ/mol]
      Disp20                       -6.59359538 [mEh]      -4.13754357 [kcal/mol]     -17.31148228 [kJ/mol]
      Exch-Disp20                   0.61809883 [mEh]       0.38786287 [kcal/mol]       1.62281826 [kJ/mol]
      Disp20 (SS)                  -3.29679769 [mEh]      -2.06877178 [kcal/mol]      -8.65574114 [kJ/mol]
      Disp20 (OS)                  -3.29679769 [mEh]      -2.06877178 [kcal/mol]      -8.65574114 [kJ/mol]
      Exch-Disp20 (SS)              0.40045369 [mEh]       0.25128848 [kcal/mol]       1.05139101 [kJ/mol]
      Exch-Disp20 (OS)              0.21764514 [mEh]       0.13657439 [kcal/mol]       0.57142724 [kJ/mol]

  Total HF                          1.24340756 [mEh]       0.78025002 [kcal/mol]       3.26456610 [kJ/mol]
  Total SAPT0                      -4.73208898 [mEh]      -2.96943067 [kcal/mol]     -12.42409792 [kJ/mol]

  Special recipe for scaled SAPT0 (see Manual):
    Electrostatics sSAPT0          -3.13694902 [mEh]      -1.96846523 [kcal/mol]      -8.23605853 [kJ/mol]
    Exchange sSAPT0                 6.53186413 [mEh]       4.09880662 [kcal/mol]      17.14940691 [kJ/mol]
    Induction sSAPT0               -2.13801453 [mEh]      -1.34162437 [kcal/mol]      -5.61335638 [kJ/mol]
    Dispersion sSAPT0              -5.96958914 [mEh]      -3.74597374 [kcal/mol]     -15.67315412 [kJ/mol]
  Total sSAPT0                     -4.71268856 [mEh]      -2.95725672 [kcal/mol]     -12.37316211 [kJ/mol]
  --------------------------------------------------------------------------------------------------------

*** Psi4 exiting successfully. Buy a developer a beer!
