                               Psi4 1.3.2 release

  ==> Input File <==

--------------------------------------------------------------------------
# Any line starting with the # character is a comment line
#! Sample  computation

memory 22 gb

molecule Dimer {
0 1
 C 1.486470    1.816441   -0.087003
 C 1.201902    0.505287   -0.797632
 C 1.004926   -0.636264    0.158667
 O 0.955283   -0.557177    1.365849
 O 0.873072   -1.815403   -0.501391
 H 2.391845    1.742574    0.512161
 H 1.615384    2.618233   -0.811758
 H 0.668491    2.079098    0.579922
 H 2.006087    0.228448   -1.480754
 H 0.297532    0.567539   -1.406973
 H 0.734806   -2.488053    0.183854

 --
0 1
 C   -2.658450   -0.434128   -0.334025
 C   -2.284843    0.892401    0.318447
 H   -2.997357   -1.153503    0.410619
 H   -1.810081   -0.877163   -0.855537
 H   -3.461004   -0.305355   -1.059461
 H   -1.490923    0.760112    1.052879
 H   -3.140419    1.331120    0.830619
 H   -1.941225    1.615167   -0.421962

units angstrom

no_reorient
symmetry c1
}

set globals{
  basis jun-cc-pvtz
}

energy('sapt0')

--------------------------------------------------------------------------

  //              Dimer HF             //
    Molecular point group: c1
  Charge       = 0
  Multiplicity = 1
  Basis Set: JUN-CC-PVTZ
    Blend: JUN-CC-PVTZ
  Basis Set: (JUN-CC-PVTZ AUX)
    Blend: JUN-CC-PVTZ-JKFIT
  @DF-RHF Final Energy:  -346.21052968909351
    Total Energy =                       -346.2105296890935051
  //            Monomer A HF           //
    Molecular point group: c1
  Multiplicity = 1
  Basis Set: JUN-CC-PVTZ
    Blend: JUN-CC-PVTZ
  Basis Set: (JUN-CC-PVTZ AUX)
    Blend: JUN-CC-PVTZ-JKFIT
  @DF-RHF Final Energy:  -266.95271054581690
    Total Energy =                       -266.9527105458168990
  //            Monomer B HF           //
    Molecular point group: c1

    Geometry (in Angstrom), charge = 0, multiplicity = 1:

       Center              X                  Y                   Z               Mass
    ------------   -----------------  -----------------  -----------------  -----------------
      Gh(C)           1.418622602485     1.874646814729    -0.110471502925    12.000000000000
      Gh(C)           1.134054602485     0.563492814729    -0.821100502925    12.000000000000
      Gh(C)           0.937078602485    -0.578058185271     0.135198497075    12.000000000000
      Gh(O)           0.887435602485    -0.498971185271     1.342380497075    15.994914619570
      Gh(O)           0.805224602485    -1.757197185271    -0.524859502925    15.994914619570
      Gh(H)           2.323997602485     1.800779814729     0.488692497075     1.007825032230
      Gh(H)           1.547536602485     2.676438814729    -0.835226502925     1.007825032230
      Gh(H)           0.600643602485     2.137303814729     0.556453497075     1.007825032230
      Gh(H)           1.938239602485     0.286653814729    -1.504222502925     1.007825032230
      Gh(H)           0.229684602485     0.625744814729    -1.430441502925     1.007825032230
      Gh(H)           0.666958602485    -2.429847185271     0.160385497075     1.007825032230
         C           -2.726297397515    -0.375922185271    -0.357493502925    12.000000000000
         C           -2.352690397515     0.950606814729     0.294978497075    12.000000000000
         H           -3.065204397515    -1.095297185271     0.387150497075     1.007825032230
         H           -1.877928397515    -0.818957185271    -0.879005502925     1.007825032230
         H           -3.528851397515    -0.247149185271    -1.082929502925     1.007825032230
         H           -1.558770397515     0.818317814729     1.029410497075     1.007825032230
         H           -3.208266397515     1.389325814729     0.807150497075     1.007825032230
         H           -2.009072397515     1.673372814729    -0.445430502925     1.007825032230

  Charge       = 0
  Multiplicity = 1
  Basis Set: JUN-CC-PVTZ
    Blend: JUN-CC-PVTZ
  Basis Set: (JUN-CC-PVTZ AUX)
    Blend: JUN-CC-PVTZ-JKFIT

    Orbital Energies [Eh]
    ---------------------

    Doubly Occupied:

       1A    -11.210675     2A    -11.210051     3A     -1.018241
       4A     -0.841693     5A     -0.597299     6A     -0.596426
       7A     -0.509840     8A     -0.487001     9A     -0.486138

  @DF-RHF Final Energy:   -79.26013321364566

   => Energetics <=

    Nuclear Repulsion Energy =             42.3259257431277405
    One-Electron Energy =                -189.2573918036200951
    Two-Electron Energy =                  67.6713328468467097
    Total Energy =                        -79.2601332136456591

  Dipole Moment: [D]
     X:    -0.0036      Y:    -0.0006      Z:     0.0016     Total:     0.0040

    SAPT Results
  --------------------------------------------------------------------------------------------------------
    Electrostatics                 -1.95778711 [mEh]      -1.22852996 [kcal/mol]      -5.14016934 [kJ/mol]
      Elst10,r                     -1.95778711 [mEh]      -1.22852996 [kcal/mol]      -5.14016934 [kJ/mol]

    Exchange                        4.78523164 [mEh]       3.00277819 [kcal/mol]      12.56362394 [kJ/mol]
      Exch10                        4.78523164 [mEh]       3.00277819 [kcal/mol]      12.56362394 [kJ/mol]
      Exch10(S^2)                   4.77920412 [mEh]       2.99899586 [kcal/mol]      12.54779870 [kJ/mol]

    Induction                      -0.51337416 [mEh]      -0.32214715 [kcal/mol]      -1.34786368 [kJ/mol]
      Ind20,r                      -1.09533099 [mEh]      -0.68733057 [kcal/mol]      -2.87579112 [kJ/mol]
      Exch-Ind20,r                  0.84164056 [mEh]       0.52813742 [kcal/mol]       2.20972698 [kJ/mol]
      delta HF,r (2)               -0.25968373 [mEh]      -0.16295400 [kcal/mol]      -0.68179954 [kJ/mol]

    Dispersion                     -5.84910392 [mEh]      -3.67036812 [kcal/mol]     -15.35682023 [kJ/mol]
      Disp20                       -6.35783359 [mEh]      -3.98960081 [kcal/mol]     -16.69248979 [kJ/mol]
      Exch-Disp20                   0.50872967 [mEh]       0.31923269 [kcal/mol]       1.33566956 [kJ/mol]
      Disp20 (SS)                  -3.17891679 [mEh]      -1.99480040 [kcal/mol]      -8.34624489 [kJ/mol]
      Disp20 (OS)                  -3.17891679 [mEh]      -1.99480040 [kcal/mol]      -8.34624489 [kJ/mol]
      Exch-Disp20 (SS)              0.33525543 [mEh]       0.21037596 [kcal/mol]       0.88021300 [kJ/mol]
      Exch-Disp20 (OS)              0.17347424 [mEh]       0.10885673 [kcal/mol]       0.45545656 [kJ/mol]

  Total HF                          2.31407037 [mEh]       1.45210108 [kcal/mol]       6.07559092 [kJ/mol]
  Total SAPT0                      -3.53503355 [mEh]      -2.21826704 [kcal/mol]      -9.28122931 [kJ/mol]

  Special recipe for scaled SAPT0 (see Manual):
    Electrostatics sSAPT0          -1.95778711 [mEh]      -1.22852996 [kcal/mol]      -5.14016934 [kJ/mol]
    Exchange sSAPT0                 4.78523164 [mEh]       3.00277819 [kcal/mol]      12.56362394 [kJ/mol]
    Induction sSAPT0               -0.51018572 [mEh]      -0.32014638 [kcal/mol]      -1.33949244 [kJ/mol]
    Dispersion sSAPT0              -5.84717667 [mEh]      -3.66915875 [kcal/mol]     -15.35176022 [kJ/mol]
  Total sSAPT0                     -3.52991786 [mEh]      -2.21505690 [kcal/mol]      -9.26779806 [kJ/mol]
  --------------------------------------------------------------------------------------------------------

*** Psi4 exiting successfully. Buy a developer a beer!
