                               Psi4 1.3.2 release

  ==> Input File <==

--------------------------------------------------------------------------
# Any line starting with the # character is a comment line
#! Sample  computation

memory 22 gb

molecule Dimer {
0 1
 C -1.245224    0.022056    0.193457
 O -0.974103   -0.128047    1.363518
 O -1.668065   -0.999024   -0.594619
 H -1.678908   -1.784613   -0.025667
 C -1.157632    1.301959   -0.578522
 H -0.914448    2.116123    0.094497
 H -0.383450    1.206159   -1.338598
 H -2.100342    1.493025   -1.086554

 --
0 1
 C   2.129829   -0.806775   -0.359796
 C   2.384116    0.590561    0.194192
 H   2.974975   -1.156811   -0.951595
 H   1.249720   -0.829560   -1.002719
 H   1.966346   -1.521412    0.445890
 H   2.514288    1.317144   -0.607790
 H   3.286262    0.609943    0.804410
 H   1.556374    0.919766    0.820942

units angstrom

no_reorient
symmetry c1
}

set globals{
  basis jun-cc-pvtz
}

energy('sapt0')

--------------------------------------------------------------------------

  //              Dimer HF             //
    Molecular point group: c1
  Charge       = 0
  Multiplicity = 1
  Basis Set: JUN-CC-PVTZ
    Blend: JUN-CC-PVTZ
  Basis Set: (JUN-CC-PVTZ AUX)
    Blend: JUN-CC-PVTZ-JKFIT
  @DF-RHF Final Energy:  -307.16245214179537
    Total Energy =                       -307.1624521417953702
  //            Monomer A HF           //
    Molecular point group: c1
  Multiplicity = 1
  Basis Set: JUN-CC-PVTZ
    Blend: JUN-CC-PVTZ
  Basis Set: (JUN-CC-PVTZ AUX)
    Blend: JUN-CC-PVTZ-JKFIT
  @DF-RHF Final Energy:  -227.90439050980200
    Total Energy =                       -227.9043905098019991
  //            Monomer B HF           //
    Molecular point group: c1

    Geometry (in Angstrom), charge = 0, multiplicity = 1:

       Center              X                  Y                   Z               Mass
    ------------   -----------------  -----------------  -----------------  -----------------
      Gh(C)          -1.152060226603     0.048097245100     0.162136441560    12.000000000000
      Gh(O)          -0.880939226603    -0.102005754900     1.332197441560    15.994914619570
      Gh(O)          -1.574901226603    -0.972982754900    -0.625939558440    15.994914619570
      Gh(H)          -1.585744226603    -1.758571754900    -0.056987558440     1.007825032230
      Gh(C)          -1.064468226603     1.328000245100    -0.609842558440    12.000000000000
      Gh(H)          -0.821284226603     2.142164245100     0.063176441560     1.007825032230
      Gh(H)          -0.290286226603     1.232200245100    -1.369918558440     1.007825032230
      Gh(H)          -2.007178226603     1.519066245100    -1.117874558440     1.007825032230
         C            2.222992773397    -0.780733754900    -0.391116558440    12.000000000000
         C            2.477279773397     0.616602245100     0.162871441560    12.000000000000
         H            3.068138773397    -1.130769754900    -0.982915558440     1.007825032230
         H            1.342883773397    -0.803518754900    -1.034039558440     1.007825032230
         H            2.059509773397    -1.495370754900     0.414569441560     1.007825032230
         H            2.607451773397     1.343185245100    -0.639110558440     1.007825032230
         H            3.379425773397     0.635984245100     0.773089441560     1.007825032230
         H            1.649537773397     0.945807245100     0.789621441560     1.007825032230

  Charge       = 0
  Multiplicity = 1
  Basis Set: JUN-CC-PVTZ
    Blend: JUN-CC-PVTZ
  Basis Set: (JUN-CC-PVTZ AUX)
    Blend: JUN-CC-PVTZ-JKFIT

    Orbital Energies [Eh]
    ---------------------

    Doubly Occupied:

       1A    -11.210576     2A    -11.209961     3A     -1.018369
       4A     -0.841610     5A     -0.597791     6A     -0.596234
       7A     -0.509722     8A     -0.487329     9A     -0.485842

  @DF-RHF Final Energy:   -79.26011094864586

   => Energetics <=

    Nuclear Repulsion Energy =             42.3335734618422066
    One-Electron Energy =                -189.2725034230800816
    Two-Electron Energy =                  67.6788190125920153
    Total Energy =                        -79.2601109486458597

  Dipole Moment: [D]
     X:     0.0027      Y:    -0.0014      Z:     0.0025     Total:     0.0039

    SAPT Results
  --------------------------------------------------------------------------------------------------------
    Electrostatics                 -1.65966884 [mEh]      -1.04145792 [kcal/mol]      -4.35745994 [kJ/mol]
      Elst10,r                     -1.65966884 [mEh]      -1.04145792 [kcal/mol]      -4.35745994 [kJ/mol]

    Exchange                        4.22488995 [mEh]       2.65115847 [kcal/mol]      11.09244704 [kJ/mol]
      Exch10                        4.22488995 [mEh]       2.65115847 [kcal/mol]      11.09244704 [kJ/mol]
      Exch10(S^2)                   4.21847794 [mEh]       2.64713487 [kcal/mol]      11.07561231 [kJ/mol]

    Induction                      -0.51590446 [mEh]      -0.32373493 [kcal/mol]      -1.35450697 [kJ/mol]
      Ind20,r                      -1.15009651 [mEh]      -0.72169646 [kcal/mol]      -3.01957798 [kJ/mol]
      Exch-Ind20,r                  0.85720744 [mEh]       0.53790579 [kcal/mol]       2.25059783 [kJ/mol]
      delta HF,r (2)               -0.22301539 [mEh]      -0.13994427 [kcal/mol]      -0.58552682 [kJ/mol]

    Dispersion                     -5.17896801 [mEh]      -3.24985149 [kcal/mol]     -13.59737864 [kJ/mol]
      Disp20                       -5.63497146 [mEh]      -3.53599798 [kcal/mol]     -14.79461554 [kJ/mol]
      Exch-Disp20                   0.45600345 [mEh]       0.28614649 [kcal/mol]       1.19723690 [kJ/mol]
      Disp20 (SS)                  -2.81748573 [mEh]      -1.76799899 [kcal/mol]      -7.39730777 [kJ/mol]
      Disp20 (OS)                  -2.81748573 [mEh]      -1.76799899 [kcal/mol]      -7.39730777 [kJ/mol]
      Exch-Disp20 (SS)              0.29896241 [mEh]       0.18760174 [kcal/mol]       0.78492570 [kJ/mol]
      Exch-Disp20 (OS)              0.15704104 [mEh]       0.09854474 [kcal/mol]       0.41231120 [kJ/mol]

  Total HF                          2.04931665 [mEh]       1.28596561 [kcal/mol]       5.38048013 [kJ/mol]
  Total SAPT0                      -3.12965136 [mEh]      -1.96388588 [kcal/mol]      -8.21689851 [kJ/mol]

  Special recipe for scaled SAPT0 (see Manual):
    Electrostatics sSAPT0          -1.65966884 [mEh]      -1.04145792 [kcal/mol]      -4.35745994 [kJ/mol]
    Exchange sSAPT0                 4.22488995 [mEh]       2.65115847 [kcal/mol]      11.09244704 [kJ/mol]
    Induction sSAPT0               -0.51198969 [mEh]      -0.32127838 [kcal/mol]      -1.34422876 [kJ/mol]
    Dispersion sSAPT0              -5.17688550 [mEh]      -3.24854469 [kcal/mol]     -13.59191100 [kJ/mol]
  Total sSAPT0                     -3.12365408 [mEh]      -1.96012253 [kcal/mol]      -8.20115266 [kJ/mol]
  --------------------------------------------------------------------------------------------------------

*** Psi4 exiting successfully. Buy a developer a beer!
