                               Psi4 1.3.2 release

  ==> Input File <==

--------------------------------------------------------------------------
# Any line starting with the # character is a comment line
#! Sample  computation

memory 22 gb

molecule Dimer {
0 1
 C -2.000366   -0.157357   -0.000050
 O -1.506847    1.092908    0.000086
 O -1.339790   -1.166837   -0.000094
 H -3.092560   -0.123078   -0.000115
 H -0.537102    1.014605    0.000139

 --
0 1
 C   2.293342   -0.710767   -0.000067
 C   1.971879    0.779133    0.000105
 H   2.874921   -0.982088   -0.879781
 H   1.382472   -1.306900   -0.000134
 H   2.874923   -0.982291    0.879583
 H   1.402868    1.059076   -0.888768
 H   2.875581    1.387182    0.000176
 H   1.402868    1.058870    0.889043

units angstrom

no_reorient
symmetry c1
}

set globals{
  basis jun-cc-pvtz
}

energy('sapt0')

--------------------------------------------------------------------------

  //              Dimer HF             //
    Molecular point group: c1
  Charge       = 0
  Multiplicity = 1
  Basis Set: JUN-CC-PVTZ
    Blend: JUN-CC-PVTZ
  Basis Set: (JUN-CC-PVTZ AUX)
    Blend: JUN-CC-PVTZ-JKFIT
  @DF-RHF Final Energy:  -268.10256715361930
    Total Energy =                       -268.1025671536193045
  //            Monomer A HF           //
    Molecular point group: c1
  Multiplicity = 1
  Basis Set: JUN-CC-PVTZ
    Blend: JUN-CC-PVTZ
  Basis Set: (JUN-CC-PVTZ AUX)
    Blend: JUN-CC-PVTZ-JKFIT
  @DF-RHF Final Energy:  -188.84287713666785
    Total Energy =                       -188.8428771366678518
  //            Monomer B HF           //
    Molecular point group: c1

    Geometry (in Angstrom), charge = 0, multiplicity = 1:

       Center              X                  Y                   Z               Mass
    ------------   -----------------  -----------------  -----------------  -----------------
      Gh(C)          -1.880742998355    -0.142680309895    -0.000048319050    12.000000000000
      Gh(O)          -1.387223998355     1.107584690105     0.000087680950    15.994914619570
      Gh(O)          -1.220166998355    -1.152160309895    -0.000092319050    15.994914619570
      Gh(H)          -2.972936998355    -0.108401309895    -0.000113319050     1.007825032230
      Gh(H)          -0.417478998355     1.029281690105     0.000140680950     1.007825032230
         C            2.412965001645    -0.696090309895    -0.000065319050    12.000000000000
         C            2.091502001645     0.793809690105     0.000106680950    12.000000000000
         H            2.994544001645    -0.967411309895    -0.879779319050     1.007825032230
         H            1.502095001645    -1.292223309895    -0.000132319050     1.007825032230
         H            2.994546001645    -0.967614309895     0.879584680950     1.007825032230
         H            1.522491001645     1.073752690105    -0.888766319050     1.007825032230
         H            2.995204001645     1.401858690105     0.000177680950     1.007825032230
         H            1.522491001645     1.073546690105     0.889044680950     1.007825032230

  Charge       = 0
  Multiplicity = 1
  Basis Set: JUN-CC-PVTZ
    Blend: JUN-CC-PVTZ
  Basis Set: (JUN-CC-PVTZ AUX)
    Blend: JUN-CC-PVTZ-JKFIT

    Orbital Energies [Eh]
    ---------------------

    Doubly Occupied:

       1A    -11.210715     2A    -11.209983     3A     -1.018446
       4A     -0.841264     5A     -0.598256     6A     -0.596065
       7A     -0.509493     8A     -0.487522     9A     -0.485422

  @DF-RHF Final Energy:   -79.26001847617965

   => Energetics <=

    Nuclear Repulsion Energy =             42.3339353018885731
    One-Electron Energy =                -189.2735729965907581
    Two-Electron Energy =                  67.6796192185225323
    Total Energy =                        -79.2600184761796527

  Dipole Moment: [D]
     X:     0.0108      Y:    -0.0003      Z:     0.0000     Total:     0.0108

    SAPT Results
  --------------------------------------------------------------------------------------------------------
    Electrostatics                 -2.73637697 [mEh]      -1.71710247 [kcal/mol]      -7.18435673 [kJ/mol]
      Elst10,r                     -2.73637697 [mEh]      -1.71710247 [kcal/mol]      -7.18435673 [kJ/mol]

    Exchange                        5.03034333 [mEh]       3.15658810 [kcal/mol]      13.20716460 [kJ/mol]
      Exch10                        5.03034333 [mEh]       3.15658810 [kcal/mol]      13.20716460 [kJ/mol]
      Exch10(S^2)                   5.01900747 [mEh]       3.14947474 [kcal/mol]      13.17740229 [kJ/mol]

    Induction                      -1.96550714 [mEh]      -1.23337435 [kcal/mol]      -5.16043828 [kJ/mol]
      Ind20,r                      -2.38675926 [mEh]      -1.49771405 [kcal/mol]      -6.26643556 [kJ/mol]
      Exch-Ind20,r                  1.01016521 [mEh]       0.63388824 [kcal/mol]       2.65218839 [kJ/mol]
      delta HF,r (2)               -0.58891309 [mEh]      -0.36954854 [kcal/mol]      -1.54619111 [kJ/mol]

    Dispersion                     -3.78150492 [mEh]      -2.37293016 [kcal/mol]      -9.92833980 [kJ/mol]
      Disp20                       -4.18876062 [mEh]      -2.62848697 [kcal/mol]     -10.99758950 [kJ/mol]
      Exch-Disp20                   0.40725570 [mEh]       0.25555681 [kcal/mol]       1.06924971 [kJ/mol]
      Disp20 (SS)                  -2.09438031 [mEh]      -1.31424349 [kcal/mol]      -5.49879475 [kJ/mol]
      Disp20 (OS)                  -2.09438031 [mEh]      -1.31424349 [kcal/mol]      -5.49879475 [kJ/mol]
      Exch-Disp20 (SS)              0.26594755 [mEh]       0.16688461 [kcal/mol]       0.69824521 [kJ/mol]
      Exch-Disp20 (OS)              0.14130815 [mEh]       0.08867220 [kcal/mol]       0.37100450 [kJ/mol]

  Total HF                          0.32845923 [mEh]       0.20611128 [kcal/mol]       0.86236958 [kJ/mol]
  Total SAPT0                      -3.45304569 [mEh]      -2.16681888 [kcal/mol]      -9.06597021 [kJ/mol]

  Special recipe for scaled SAPT0 (see Manual):
    Electrostatics sSAPT0          -2.73637697 [mEh]      -1.71710247 [kcal/mol]      -7.18435673 [kJ/mol]
    Exchange sSAPT0                 5.03034333 [mEh]       3.15658810 [kcal/mol]      13.20716460 [kJ/mol]
    Induction sSAPT0               -1.95864703 [mEh]      -1.22906957 [kcal/mol]      -5.14242707 [kJ/mol]
    Dispersion sSAPT0              -3.77873921 [mEh]      -2.37119466 [kcal/mol]      -9.92107844 [kJ/mol]
  Total sSAPT0                     -3.44341988 [mEh]      -2.16077860 [kcal/mol]      -9.04069764 [kJ/mol]
  --------------------------------------------------------------------------------------------------------

*** Psi4 exiting successfully. Buy a developer a beer!
