                               Psi4 1.3.2 release

  ==> Input File <==

--------------------------------------------------------------------------
# Any line starting with the # character is a comment line
#! Sample  computation

memory 22 gb

molecule Dimer {
0 1
 C  1.479034   -0.047912    0.000144
 O  0.638564   -1.097649   -0.000074
 O  1.145108    1.111134   -0.000018
 H  2.512542   -0.402754    0.000489
 H -0.263615   -0.735020   -0.000365

 --
0 1
 C   -2.536409    0.131231   -0.000024
 H   -3.535662    0.556496   -0.000080
 H   -2.416511   -0.481373    0.891021
 H   -2.416550   -0.481655   -0.890884
 H   -1.805334    0.936507   -0.000161

units angstrom

no_reorient
symmetry c1
}

set globals{
  basis jun-cc-pvtz
}

energy('sapt0')

--------------------------------------------------------------------------

  //              Dimer HF             //
    Molecular point group: c1
  Charge       = 0
  Multiplicity = 1
  Basis Set: JUN-CC-PVTZ
    Blend: JUN-CC-PVTZ
  Basis Set: (JUN-CC-PVTZ AUX)
    Blend: JUN-CC-PVTZ-JKFIT
  @DF-RHF Final Energy:  -229.05619114489267
    Total Energy =                       -229.0561911448926651
  //            Monomer A HF           //
    Molecular point group: c1
  Multiplicity = 1
  Basis Set: JUN-CC-PVTZ
    Blend: JUN-CC-PVTZ
  Basis Set: (JUN-CC-PVTZ AUX)
    Blend: JUN-CC-PVTZ-JKFIT
  @DF-RHF Final Energy:  -188.84286061715886
    Total Energy =                       -188.8428606171588626
  //            Monomer B HF           //
    Molecular point group: c1

    Geometry (in Angstrom), charge = 0, multiplicity = 1:

       Center              X                  Y                   Z               Mass
    ------------   -----------------  -----------------  -----------------  -----------------
      Gh(C)           1.352431087607    -0.057631466136     0.000144183369    12.000000000000
      Gh(O)           0.511961087607    -1.107368466136    -0.000073816631    15.994914619570
      Gh(O)           1.018505087607     1.101414533864    -0.000017816631    15.994914619570
      Gh(H)           2.385939087607    -0.412473466136     0.000489183369     1.007825032230
      Gh(H)          -0.390217912393    -0.744739466136    -0.000364816631     1.007825032230
         C           -2.663011912393     0.121511533864    -0.000023816631    12.000000000000
         H           -3.662264912393     0.546776533864    -0.000079816631     1.007825032230
         H           -2.543113912393    -0.491092466136     0.891021183369     1.007825032230
         H           -2.543152912393    -0.491374466136    -0.890883816631     1.007825032230
         H           -1.931936912393     0.926787533864    -0.000160816631     1.007825032230

  Charge       = 0
  Multiplicity = 1
  Basis Set: JUN-CC-PVTZ
    Blend: JUN-CC-PVTZ
  Basis Set: (JUN-CC-PVTZ AUX)
    Blend: JUN-CC-PVTZ-JKFIT

    Orbital Energies [Eh]
    ---------------------

    Doubly Occupied:

       1A    -11.205876     2A     -0.943432     3A     -0.546352
       4A     -0.545921     5A     -0.543205

  @DF-RHF Final Energy:   -40.21347649574451

   => Energetics <=

    Nuclear Repulsion Energy =             13.4679042294738434
    One-Electron Energy =                 -79.7931907949144090
    Two-Electron Energy =                  26.1118100696960518
    Total Energy =                        -40.2134764957445157

  Dipole Moment: [D]
     X:    -0.0101      Y:     0.0023      Z:     0.0000     Total:     0.0103

    SAPT Results
  --------------------------------------------------------------------------------------------------------
    Electrostatics                 -2.22888574 [mEh]      -1.39864692 [kcal/mol]      -5.85193872 [kJ/mol]
      Elst10,r                     -2.22888574 [mEh]      -1.39864692 [kcal/mol]      -5.85193872 [kJ/mol]

    Exchange                        3.84462678 [mEh]       2.41253973 [kcal/mol]      10.09406622 [kJ/mol]
      Exch10                        3.84462678 [mEh]       2.41253973 [kcal/mol]      10.09406622 [kJ/mol]
      Exch10(S^2)                   3.83400500 [mEh]       2.40587446 [kcal/mol]      10.06617875 [kJ/mol]

    Induction                      -1.46977302 [mEh]      -0.92229650 [kcal/mol]      -3.85888854 [kJ/mol]
      Ind20,r                      -1.79858802 [mEh]      -1.12863102 [kcal/mol]      -4.72219221 [kJ/mol]
      Exch-Ind20,r                  0.76593347 [mEh]       0.48063051 [kcal/mol]       2.01095805 [kJ/mol]
      delta HF,r (2)               -0.43711847 [mEh]      -0.27429598 [kcal/mol]      -1.14765439 [kJ/mol]

    Dispersion                     -2.84049242 [mEh]      -1.78243591 [kcal/mol]      -7.45771183 [kJ/mol]
      Disp20                       -3.13786767 [mEh]      -1.96904169 [kcal/mol]      -8.23847042 [kJ/mol]
      Exch-Disp20                   0.29737524 [mEh]       0.18660578 [kcal/mol]       0.78075859 [kJ/mol]
      Disp20 (SS)                  -1.56893383 [mEh]      -0.98452084 [kcal/mol]      -4.11923521 [kJ/mol]
      Disp20 (OS)                  -1.56893383 [mEh]      -0.98452084 [kcal/mol]      -4.11923521 [kJ/mol]
      Exch-Disp20 (SS)              0.19601380 [mEh]       0.12300052 [kcal/mol]       0.51463417 [kJ/mol]
      Exch-Disp20 (OS)              0.10136144 [mEh]       0.06360526 [kcal/mol]       0.26612442 [kJ/mol]

  Total HF                          0.14596801 [mEh]       0.09159631 [kcal/mol]       0.38323896 [kJ/mol]
  Total SAPT0                      -2.69452441 [mEh]      -1.69083960 [kcal/mol]      -7.07447287 [kJ/mol]

  Special recipe for scaled SAPT0 (see Manual):
    Electrostatics sSAPT0          -2.22888574 [mEh]      -1.39864692 [kcal/mol]      -5.85193872 [kJ/mol]
    Exchange sSAPT0                 3.84462678 [mEh]       2.41253973 [kcal/mol]      10.09406622 [kJ/mol]
    Induction sSAPT0               -1.46338952 [mEh]      -0.91829079 [kcal/mol]      -3.84212865 [kJ/mol]
    Dispersion sSAPT0              -2.83801401 [mEh]      -1.78088068 [kcal/mol]      -7.45120477 [kJ/mol]
  Total sSAPT0                     -2.68566250 [mEh]      -1.68527866 [kcal/mol]      -7.05120591 [kJ/mol]
  --------------------------------------------------------------------------------------------------------

*** Psi4 exiting successfully. Buy a developer a beer!
