                               Psi4 1.3.2 release

  ==> Input File <==

--------------------------------------------------------------------------
# Any line starting with the # character is a comment line
#! Sample  computation

memory 22 gb

molecule Dimer {
0 1
 C  0.733443    1.936084    0.094794
 C  0.751206    0.666281   -0.737124
 C  0.671799   -0.573092    0.107709
 O  0.647967   -0.613093    1.317500
 O  0.629450   -1.691961   -0.660149
 H  1.568836    1.953432    0.791406
 H  0.799403    2.810959   -0.549353
 H -0.183485    2.002238    0.676794
 H  1.659819    0.589626   -1.337402
 H -0.079725    0.632056   -1.443179
 H  0.584671   -2.436237   -0.039668

 --
0 1
 C   -2.750186    0.071381   -0.014798
 H   -2.682650    1.066128   -0.447892
 H   -3.786272   -0.142465    0.232450
 H   -2.392623   -0.663054   -0.732188
 H   -2.144887    0.023826    0.886740

units angstrom

no_reorient
symmetry c1
}

set globals{
  basis jun-cc-pvtz
}

energy('sapt0')

--------------------------------------------------------------------------

  //              Dimer HF             //
    Molecular point group: c1
  Charge       = 0
  Multiplicity = 1
  Basis Set: JUN-CC-PVTZ
    Blend: JUN-CC-PVTZ
  Basis Set: (JUN-CC-PVTZ AUX)
    Blend: JUN-CC-PVTZ-JKFIT
  @DF-RHF Final Energy:  -307.16482147803453
    Total Energy =                       -307.1648214780345256
  //            Monomer A HF           //
    Molecular point group: c1
  Multiplicity = 1
  Basis Set: JUN-CC-PVTZ
    Blend: JUN-CC-PVTZ
  Basis Set: (JUN-CC-PVTZ AUX)
    Blend: JUN-CC-PVTZ-JKFIT
  @DF-RHF Final Energy:  -266.95271517829923
    Total Energy =                       -266.9527151782992291
  //            Monomer B HF           //
    Molecular point group: c1

    Geometry (in Angstrom), charge = 0, multiplicity = 1:

       Center              X                  Y                   Z               Mass
    ------------   -----------------  -----------------  -----------------  -----------------
      Gh(C)           0.660183790723     2.000247842291     0.073214788681    12.000000000000
      Gh(C)           0.677946790723     0.730444842291    -0.758703211319    12.000000000000
      Gh(C)           0.598539790723    -0.508928157709     0.086129788681    12.000000000000
      Gh(O)           0.574707790723    -0.548929157709     1.295920788681    15.994914619570
      Gh(O)           0.556190790723    -1.627797157709    -0.681728211319    15.994914619570
      Gh(H)           1.495576790723     2.017595842291     0.769826788681     1.007825032230
      Gh(H)           0.726143790723     2.875122842291    -0.570932211319     1.007825032230
      Gh(H)          -0.256744209277     2.066401842291     0.655214788681     1.007825032230
      Gh(H)           1.586559790723     0.653789842291    -1.358981211319     1.007825032230
      Gh(H)          -0.152984209277     0.696219842291    -1.464758211319     1.007825032230
      Gh(H)           0.511411790723    -2.372073157709    -0.061247211319     1.007825032230
         C           -2.823445209277     0.135544842291    -0.036377211319    12.000000000000
         H           -2.755909209277     1.130291842291    -0.469471211319     1.007825032230
         H           -3.859531209277    -0.078301157709     0.210870788681     1.007825032230
         H           -2.465882209277    -0.598890157709    -0.753767211319     1.007825032230
         H           -2.218146209277     0.087989842291     0.865160788681     1.007825032230

  Charge       = 0
  Multiplicity = 1
  Basis Set: JUN-CC-PVTZ
    Blend: JUN-CC-PVTZ
  Basis Set: (JUN-CC-PVTZ AUX)
    Blend: JUN-CC-PVTZ-JKFIT

    Orbital Energies [Eh]
    ---------------------

    Doubly Occupied:

       1A    -11.205640     2A     -0.943617     3A     -0.545676
       4A     -0.545351     5A     -0.544853

  @DF-RHF Final Energy:   -40.21353502905853

   => Energetics <=

    Nuclear Repulsion Energy =             13.4738620797653468
    One-Electron Energy =                 -79.8045238673760053
    Two-Electron Energy =                  26.1171267585521321
    Total Energy =                        -40.2135350290585336

  Dipole Moment: [D]
     X:    -0.0028      Y:    -0.0001      Z:    -0.0005     Total:     0.0029

    SAPT Results
  --------------------------------------------------------------------------------------------------------
    Electrostatics                 -1.63011285 [mEh]      -1.02291126 [kcal/mol]      -4.27986070 [kJ/mol]
      Elst10,r                     -1.63011285 [mEh]      -1.02291126 [kcal/mol]      -4.27986070 [kJ/mol]

    Exchange                        3.41093935 [mEh]       2.14039676 [kcal/mol]       8.95542004 [kJ/mol]
      Exch10                        3.41093935 [mEh]       2.14039676 [kcal/mol]       8.95542004 [kJ/mol]
      Exch10(S^2)                   3.40739943 [mEh]       2.13817542 [kcal/mol]       8.94612597 [kJ/mol]

    Induction                      -0.35209718 [mEh]      -0.22094432 [kcal/mol]      -0.92443102 [kJ/mol]
      Ind20,r                      -0.80671414 [mEh]      -0.50622077 [kcal/mol]      -2.11802770 [kJ/mol]
      Exch-Ind20,r                  0.62557757 [mEh]       0.39255585 [kcal/mol]       1.64245367 [kJ/mol]
      delta HF,r (2)               -0.17096060 [mEh]      -0.10727940 [kcal/mol]      -0.44885700 [kJ/mol]

    Dispersion                     -4.11659038 [mEh]      -2.58319946 [kcal/mol]     -10.80810656 [kJ/mol]
      Disp20                       -4.47054660 [mEh]      -2.80531034 [kcal/mol]     -11.73741848 [kJ/mol]
      Exch-Disp20                   0.35395622 [mEh]       0.22211088 [kcal/mol]       0.92931192 [kJ/mol]
      Disp20 (SS)                  -2.23527330 [mEh]      -1.40265517 [kcal/mol]      -5.86870924 [kJ/mol]
      Disp20 (OS)                  -2.23527330 [mEh]      -1.40265517 [kcal/mol]      -5.86870924 [kJ/mol]
      Exch-Disp20 (SS)              0.23546631 [mEh]       0.14775734 [kcal/mol]       0.61821671 [kJ/mol]
      Exch-Disp20 (OS)              0.11848991 [mEh]       0.07435354 [kcal/mol]       0.31109521 [kJ/mol]

  Total HF                          1.42872932 [mEh]       0.89654119 [kcal/mol]       3.75112832 [kJ/mol]
  Total SAPT0                      -2.68786106 [mEh]      -1.68665828 [kcal/mol]      -7.05697824 [kJ/mol]

  Special recipe for scaled SAPT0 (see Manual):
    Electrostatics sSAPT0          -1.63011285 [mEh]      -1.02291126 [kcal/mol]      -4.27986070 [kJ/mol]
    Exchange sSAPT0                 3.41093935 [mEh]       2.14039676 [kcal/mol]       8.95542004 [kJ/mol]
    Induction sSAPT0               -0.35014543 [mEh]      -0.21971957 [kcal/mol]      -0.91930669 [kJ/mol]
    Dispersion sSAPT0              -4.11548607 [mEh]      -2.58250650 [kcal/mol]     -10.80520718 [kJ/mol]
  Total sSAPT0                     -2.68480499 [mEh]      -1.68474057 [kcal/mol]      -7.04895454 [kJ/mol]
  --------------------------------------------------------------------------------------------------------

*** Psi4 exiting successfully. Buy a developer a beer!
