                               Psi4 1.3.2 release

  ==> Input File <==

--------------------------------------------------------------------------
# Any line starting with the # character is a comment line
#! Sample  computation

memory 22 gb

molecule Dimer {
0 1
 C -0.899117    0.134418   -0.000108
 O -0.415619    1.244613   -0.000200
 O -0.145237   -0.992599   -0.000609
 H  0.780275   -0.698433   -0.001001
 C -2.361152   -0.191259    0.000570
 H -2.937343    0.726669    0.000949
 H -2.600770   -0.787575   -0.877618
 H -2.599912   -0.787759    0.878867

 --
0 1
 C   3.138065   -0.013003    0.000251
 H   2.450724    0.829944    0.000101
 H   4.158942    0.357613    0.000303
 H   2.983979   -0.618661    0.890662
 H   2.984177   -0.618846   -0.890073

units angstrom

no_reorient
symmetry c1
}

set globals{
  basis jun-cc-pvtz
}

energy('sapt0')

--------------------------------------------------------------------------

  //              Dimer HF             //
    Molecular point group: c1
  Charge       = 0
  Multiplicity = 1
  Basis Set: JUN-CC-PVTZ
    Blend: JUN-CC-PVTZ
  Basis Set: (JUN-CC-PVTZ AUX)
    Blend: JUN-CC-PVTZ-JKFIT
  @DF-RHF Final Energy:  -268.11757582116428
    Total Energy =                       -268.1175758211642801
  //            Monomer A HF           //
    Molecular point group: c1
  Multiplicity = 1
  Basis Set: JUN-CC-PVTZ
    Blend: JUN-CC-PVTZ
  Basis Set: (JUN-CC-PVTZ AUX)
    Blend: JUN-CC-PVTZ-JKFIT
  @DF-RHF Final Energy:  -227.90434480516271
    Total Energy =                       -227.9043448051627081
  //            Monomer B HF           //
    Molecular point group: c1

    Geometry (in Angstrom), charge = 0, multiplicity = 1:

       Center              X                  Y                   Z               Mass
    ------------   -----------------  -----------------  -----------------  -----------------
      Gh(C)          -0.831053788391     0.113599868727    -0.000079378309    12.000000000000
      Gh(O)          -0.347555788391     1.223794868727    -0.000171378309    15.994914619570
      Gh(O)          -0.077173788391    -1.013417131273    -0.000580378309    15.994914619570
      Gh(H)           0.848338211609    -0.719251131273    -0.000972378309     1.007825032230
      Gh(C)          -2.293088788391    -0.212077131273     0.000598621691    12.000000000000
      Gh(H)          -2.869279788391     0.705850868727     0.000977621691     1.007825032230
      Gh(H)          -2.532706788391    -0.808393131273    -0.877589378309     1.007825032230
      Gh(H)          -2.531848788391    -0.808577131273     0.878895621691     1.007825032230
         C            3.206128211609    -0.033821131273     0.000279621691    12.000000000000
         H            2.518787211609     0.809125868727     0.000129621691     1.007825032230
         H            4.227005211609     0.336794868727     0.000331621691     1.007825032230
         H            3.052042211609    -0.639479131273     0.890690621691     1.007825032230
         H            3.052240211609    -0.639664131273    -0.890044378309     1.007825032230

  Charge       = 0
  Multiplicity = 1
  Basis Set: JUN-CC-PVTZ
    Blend: JUN-CC-PVTZ
  Basis Set: (JUN-CC-PVTZ AUX)
    Blend: JUN-CC-PVTZ-JKFIT

    Orbital Energies [Eh]
    ---------------------

    Doubly Occupied:

       1A    -11.205864     2A     -0.943438     3A     -0.546278
       4A     -0.545775     5A     -0.543449

  @DF-RHF Final Energy:   -40.21348721772140

   => Energetics <=

    Nuclear Repulsion Energy =             13.4681721614599148
    One-Electron Energy =                 -79.7937167269711978
    Two-Electron Energy =                  26.1120573477898787
    Total Energy =                        -40.2134872177214007

  Dipole Moment: [D]
     X:     0.0093      Y:     0.0011      Z:     0.0000     Total:     0.0093

    SAPT Results
  --------------------------------------------------------------------------------------------------------
    Electrostatics                 -2.21908549 [mEh]      -1.39249717 [kcal/mol]      -5.82620815 [kJ/mol]
      Elst10,r                     -2.21908549 [mEh]      -1.39249717 [kcal/mol]      -5.82620815 [kJ/mol]

    Exchange                        3.79655118 [mEh]       2.38237184 [kcal/mol]       9.96784376 [kJ/mol]
      Exch10                        3.79655118 [mEh]       2.38237184 [kcal/mol]       9.96784376 [kJ/mol]
      Exch10(S^2)                   3.78631066 [mEh]       2.37594581 [kcal/mol]       9.94095726 [kJ/mol]

    Induction                      -1.32126397 [mEh]      -0.82910566 [kcal/mol]      -3.46897809 [kJ/mol]
      Ind20,r                      -1.64760779 [mEh]      -1.03388949 [kcal/mol]      -4.32579365 [kJ/mol]
      Exch-Ind20,r                  0.73433993 [mEh]       0.46080526 [kcal/mol]       1.92800922 [kJ/mol]
      delta HF,r (2)               -0.40799612 [mEh]      -0.25602143 [kcal/mol]      -1.07119367 [kJ/mol]

    Dispersion                     -2.90171324 [mEh]      -1.82085255 [kcal/mol]      -7.61844707 [kJ/mol]
      Disp20                       -3.20727258 [mEh]      -2.01259393 [kcal/mol]      -8.42069300 [kJ/mol]
      Exch-Disp20                   0.30555934 [mEh]       0.19174138 [kcal/mol]       0.80224593 [kJ/mol]
      Disp20 (SS)                  -1.60363629 [mEh]      -1.00629696 [kcal/mol]      -4.21034650 [kJ/mol]
      Disp20 (OS)                  -1.60363629 [mEh]      -1.00629696 [kcal/mol]      -4.21034650 [kJ/mol]
      Exch-Disp20 (SS)              0.20135028 [mEh]       0.12634921 [kcal/mol]       0.52864509 [kJ/mol]
      Exch-Disp20 (OS)              0.10420906 [mEh]       0.06539217 [kcal/mol]       0.27360084 [kJ/mol]

  Total HF                          0.25620172 [mEh]       0.16076901 [kcal/mol]       0.67265752 [kJ/mol]
  Total SAPT0                      -2.64551152 [mEh]      -1.66008354 [kcal/mol]      -6.94578955 [kJ/mol]

  Special recipe for scaled SAPT0 (see Manual):
    Electrostatics sSAPT0          -2.21908549 [mEh]      -1.39249717 [kcal/mol]      -5.82620815 [kJ/mol]
    Exchange sSAPT0                 3.79655118 [mEh]       2.38237184 [kcal/mol]       9.96784376 [kJ/mol]
    Induction sSAPT0               -1.31528952 [mEh]      -0.82535663 [kcal/mol]      -3.45329215 [kJ/mol]
    Dispersion sSAPT0              -2.89922727 [mEh]      -1.81929258 [kcal/mol]      -7.61192014 [kJ/mol]
  Total sSAPT0                     -2.63705109 [mEh]      -1.65477454 [kcal/mol]      -6.92357668 [kJ/mol]
  --------------------------------------------------------------------------------------------------------

*** Psi4 exiting successfully. Buy a developer a beer!
