                               Psi4 1.3.2 release

  ==> Input File <==

--------------------------------------------------------------------------
# Any line starting with the # character is a comment line
#! Sample  computation

memory 22 gb

molecule Dimer {
0 1
 C 1.538301   -0.120389    0.190027
 O 1.189891   -0.410062    1.312919
 O 1.698854   -1.049812   -0.785633
 H 1.474629   -1.901742   -0.379225
 C 1.835797    1.256657   -0.316459
 H 1.752356    1.968107    0.497052
 H 2.835692    1.282263   -0.744843
 H 1.129573    1.508449   -1.106077

 --
0 1
 C   -2.112725   -1.184949    0.132923
 C   -1.875763    0.097901   -0.655058
 C   -1.834137    1.320948    0.253831
 H   -1.324799   -1.330383    0.873234
 H   -3.063886   -1.138743    0.665135
 H   -2.137401   -2.058359   -0.518994
 H   -2.662816    0.222423   -1.401904
 H   -0.939129    0.014734   -1.211524
 H   -1.647280    2.236647   -0.307912
 H   -2.783383    1.440161    0.778053
 H   -1.052355    1.214429    1.007129

units angstrom

no_reorient
symmetry c1
}

set globals{
  basis jun-cc-pvtz
}

energy('sapt0')

--------------------------------------------------------------------------

  //              Dimer HF             //
    Molecular point group: c1
  Charge       = 0
  Multiplicity = 1
  Basis Set: JUN-CC-PVTZ
    Blend: JUN-CC-PVTZ
  Basis Set: (JUN-CC-PVTZ AUX)
    Blend: JUN-CC-PVTZ-JKFIT
  @DF-RHF Final Energy:  -346.20996701599586
    Total Energy =                       -346.2099670159958578
  //            Monomer A HF           //
    Molecular point group: c1
  Multiplicity = 1
  Basis Set: JUN-CC-PVTZ
    Blend: JUN-CC-PVTZ
  Basis Set: (JUN-CC-PVTZ AUX)
    Blend: JUN-CC-PVTZ-JKFIT
  @DF-RHF Final Energy:  -227.90443043184004
    Total Energy =                       -227.9044304318400407
  //            Monomer B HF           //
    Molecular point group: c1

    Geometry (in Angstrom), charge = 0, multiplicity = 1:

       Center              X                  Y                   Z               Mass
    ------------   -----------------  -----------------  -----------------  -----------------
      Gh(C)           1.458190215258    -0.087497220029     0.172418952927    12.000000000000
      Gh(O)           1.109780215258    -0.377170220029     1.295310952927    15.994914619570
      Gh(O)           1.618743215258    -1.016920220029    -0.803241047073    15.994914619570
      Gh(H)           1.394518215258    -1.868850220029    -0.396833047073     1.007825032230
      Gh(C)           1.755686215258     1.289548779971    -0.334067047073    12.000000000000
      Gh(H)           1.672245215258     2.000998779971     0.479443952927     1.007825032230
      Gh(H)           2.755581215258     1.315154779971    -0.762451047073     1.007825032230
      Gh(H)           1.049462215258     1.541340779971    -1.123685047073     1.007825032230
         C           -2.192835784742    -1.152057220029     0.115314952927    12.000000000000
         C           -1.955873784742     0.130792779971    -0.672666047073    12.000000000000
         C           -1.914247784742     1.353839779971     0.236222952927    12.000000000000
         H           -1.404909784742    -1.297491220029     0.855625952927     1.007825032230
         H           -3.143996784742    -1.105851220029     0.647526952927     1.007825032230
         H           -2.217511784742    -2.025467220029    -0.536602047073     1.007825032230
         H           -2.742926784742     0.255314779971    -1.419512047073     1.007825032230
         H           -1.019239784742     0.047625779971    -1.229132047073     1.007825032230
         H           -1.727390784742     2.269538779971    -0.325520047073     1.007825032230
         H           -2.863493784742     1.473052779971     0.760444952927     1.007825032230
         H           -1.132465784742     1.247320779971     0.989520952927     1.007825032230

  Charge       = 0
  Multiplicity = 1
  Basis Set: JUN-CC-PVTZ
    Blend: JUN-CC-PVTZ
  Basis Set: (JUN-CC-PVTZ AUX)
    Blend: JUN-CC-PVTZ-JKFIT

    Orbital Energies [Eh]
    ---------------------

    Doubly Occupied:

       1A    -11.215643     2A    -11.207999     3A    -11.207869
       4A     -1.053968     5A     -0.924530     6A     -0.799830
       7A     -0.624507     8A     -0.598506     9A     -0.549241
      10A     -0.530123    11A     -0.476058    12A     -0.474535
      13A     -0.467782

  @DF-RHF Final Energy:  -118.30803672827669

   => Energetics <=

    Nuclear Repulsion Energy =             82.8220048255461023
    One-Electron Energy =                -321.9989006833565099
    Two-Electron Energy =                 120.8688591295337034
    Total Energy =                       -118.3080367282766900

  Dipole Moment: [D]
     X:     0.0042      Y:     0.0034      Z:    -0.0831     Total:     0.0833

    SAPT Results
  --------------------------------------------------------------------------------------------------------
    Electrostatics                 -2.59009815 [mEh]      -1.62531112 [kcal/mol]      -6.80030174 [kJ/mol]
      Elst10,r                     -2.59009815 [mEh]      -1.62531112 [kcal/mol]      -6.80030174 [kJ/mol]

    Exchange                        5.90192693 [mEh]       3.70351506 [kcal/mol]      15.49550703 [kJ/mol]
      Exch10                        5.90192693 [mEh]       3.70351506 [kcal/mol]      15.49550703 [kJ/mol]
      Exch10(S^2)                   5.89388509 [mEh]       3.69846873 [kcal/mol]      15.47439316 [kJ/mol]

    Induction                      -0.81168467 [mEh]      -0.50933982 [kcal/mol]      -2.13107780 [kJ/mol]
      Ind20,r                      -1.68051399 [mEh]      -1.05453845 [kcal/mol]      -4.41218887 [kJ/mol]
      Exch-Ind20,r                  1.22802126 [mEh]       0.77059497 [kcal/mol]       3.22416936 [kJ/mol]
      delta HF,r (2)               -0.35919193 [mEh]      -0.22539634 [kcal/mol]      -0.94305829 [kJ/mol]

    Dispersion                     -6.79650819 [mEh]      -4.26487328 [kcal/mol]     -17.84422980 [kJ/mol]
      Disp20                       -7.44161578 [mEh]      -4.66968440 [kcal/mol]     -19.53795955 [kJ/mol]
      Exch-Disp20                   0.64510759 [mEh]       0.40481113 [kcal/mol]       1.69372975 [kJ/mol]
      Disp20 (SS)                  -3.72080789 [mEh]      -2.33484220 [kcal/mol]      -9.76897977 [kJ/mol]
      Disp20 (OS)                  -3.72080789 [mEh]      -2.33484220 [kcal/mol]      -9.76897977 [kJ/mol]
      Exch-Disp20 (SS)              0.41833687 [mEh]       0.26251035 [kcal/mol]       1.09834329 [kJ/mol]
      Exch-Disp20 (OS)              0.22677072 [mEh]       0.14230078 [kcal/mol]       0.59538645 [kJ/mol]

  Total HF                          2.50014412 [mEh]       1.56886412 [kcal/mol]       6.56412749 [kJ/mol]
  Total SAPT0                      -4.29636407 [mEh]      -2.69600916 [kcal/mol]     -11.28010232 [kJ/mol]

  Special recipe for scaled SAPT0 (see Manual):
    Electrostatics sSAPT0          -2.59009815 [mEh]      -1.62531112 [kcal/mol]      -6.80030174 [kJ/mol]
    Exchange sSAPT0                 5.90192693 [mEh]       3.70351506 [kcal/mol]      15.49550703 [kJ/mol]
    Induction sSAPT0               -0.80665112 [mEh]      -0.50618122 [kcal/mol]      -2.11786224 [kJ/mol]
    Dispersion sSAPT0              -6.79386396 [mEh]      -4.26321400 [kcal/mol]     -17.83728736 [kJ/mol]
  Total sSAPT0                     -4.28868630 [mEh]      -2.69119128 [kcal/mol]     -11.25994432 [kJ/mol]
  --------------------------------------------------------------------------------------------------------

*** Psi4 exiting successfully. Buy a developer a beer!
