                               Psi4 1.3.2 release

  ==> Input File <==

--------------------------------------------------------------------------
# Any line starting with the # character is a comment line
#! Sample  computation

memory 22 gb

molecule Dimer {
0 1
 C -1.104488    2.064697    0.151362
 C -1.404936    0.844252   -0.700262
 C -1.521602   -0.413173    0.113715
 O -1.336834   -0.512110    1.306272
 O -1.864288   -1.472014   -0.662934
 H -0.167067    1.940694    0.689188
 H -1.029154    2.952210   -0.474355
 H -1.890059    2.224571    0.887155
 H -0.625863    0.671044   -1.445851
 H -2.333921    0.958687   -1.261092
 H -1.901905   -2.236562   -0.067043

 --
0 1
 C   1.892282   -1.442051   -0.259693
 C   2.183439   -0.188699    0.556682
 C   2.582053    0.987348   -0.326680
 H   1.090205   -1.264007   -0.978416
 H   2.773843   -1.751622   -0.823220
 H   1.590065   -2.272871    0.377649
 H   2.985387   -0.396591    1.267952
 H   1.304561    0.070147    1.150041
 H   2.787696    1.882179    0.260681
 H   3.476943    0.752114   -0.904737
 H   1.787745    1.228764   -1.035397

units angstrom

no_reorient
symmetry c1
}

set globals{
  basis jun-cc-pvtz
}

energy('sapt0')

--------------------------------------------------------------------------

  //              Dimer HF             //
    Molecular point group: c1
  Charge       = 0
  Multiplicity = 1
  Basis Set: JUN-CC-PVTZ
    Blend: JUN-CC-PVTZ
  Basis Set: (JUN-CC-PVTZ AUX)
    Blend: JUN-CC-PVTZ-JKFIT
  @DF-RHF Final Energy:  -385.25770933525314
    Total Energy =                       -385.2577093352531392
  //            Monomer A HF           //
    Molecular point group: c1
  Multiplicity = 1
  Basis Set: JUN-CC-PVTZ
    Blend: JUN-CC-PVTZ
  Basis Set: (JUN-CC-PVTZ AUX)
    Blend: JUN-CC-PVTZ-JKFIT
  @DF-RHF Final Energy:  -266.95278249179552
    Total Energy =                       -266.9527824917955172
  //            Monomer B HF           //
    Molecular point group: c1

    Geometry (in Angstrom), charge = 0, multiplicity = 1:

       Center              X                  Y                   Z               Mass
    ------------   -----------------  -----------------  -----------------  -----------------
      Gh(C)          -1.021886749593     2.104590618071     0.131584315269    12.000000000000
      Gh(C)          -1.322334749593     0.884145618071    -0.720039684731    12.000000000000
      Gh(C)          -1.439000749593    -0.373279381929     0.093937315269    12.000000000000
      Gh(O)          -1.254232749593    -0.472216381929     1.286494315269    15.994914619570
      Gh(O)          -1.781686749593    -1.432120381929    -0.682711684731    15.994914619570
      Gh(H)          -0.084465749593     1.980587618071     0.669410315269     1.007825032230
      Gh(H)          -0.946552749593     2.992103618071    -0.494132684731     1.007825032230
      Gh(H)          -1.807457749593     2.264464618071     0.867377315269     1.007825032230
      Gh(H)          -0.543261749593     0.710937618071    -1.465628684731     1.007825032230
      Gh(H)          -2.251319749593     0.998580618071    -1.280869684731     1.007825032230
      Gh(H)          -1.819303749593    -2.196668381929    -0.086820684731     1.007825032230
         C            1.974883250407    -1.402157381929    -0.279470684731    12.000000000000
         C            2.266040250407    -0.148805381929     0.536904315269    12.000000000000
         C            2.664654250407     1.027241618071    -0.346457684731    12.000000000000
         H            1.172806250407    -1.224113381929    -0.998193684731     1.007825032230
         H            2.856444250407    -1.711728381929    -0.842997684731     1.007825032230
         H            1.672666250407    -2.232977381929     0.357871315269     1.007825032230
         H            3.067988250407    -0.356697381929     1.248174315269     1.007825032230
         H            1.387162250407     0.110040618071     1.130263315269     1.007825032230
         H            2.870297250407     1.922072618071     0.240903315269     1.007825032230
         H            3.559544250407     0.792007618071    -0.924514684731     1.007825032230
         H            1.870346250407     1.268657618071    -1.055174684731     1.007825032230

  Charge       = 0
  Multiplicity = 1
  Basis Set: JUN-CC-PVTZ
    Blend: JUN-CC-PVTZ
  Basis Set: (JUN-CC-PVTZ AUX)
    Blend: JUN-CC-PVTZ-JKFIT

    Orbital Energies [Eh]
    ---------------------

    Doubly Occupied:

       1A    -11.215685     2A    -11.207959     3A    -11.207835
       4A     -1.053891     5A     -0.924736     6A     -0.800050
       7A     -0.624415     8A     -0.598062     9A     -0.549733
      10A     -0.529802    11A     -0.476085    12A     -0.474552
      13A     -0.467942

  @DF-RHF Final Energy:  -118.30809173378393

   => Energetics <=

    Nuclear Repulsion Energy =             82.8025072928201951
    One-Electron Energy =                -321.9597043599508766
    Two-Electron Energy =                 120.8491053333467562
    Total Energy =                       -118.3080917337839253

  Dipole Moment: [D]
     X:    -0.0035      Y:     0.0037      Z:     0.0840     Total:     0.0841

    SAPT Results
  --------------------------------------------------------------------------------------------------------
    Electrostatics                 -1.96351258 [mEh]      -1.23212275 [kcal/mol]      -5.15520158 [kJ/mol]
      Elst10,r                     -1.96351258 [mEh]      -1.23212275 [kcal/mol]      -5.15520158 [kJ/mol]

    Exchange                        5.82349264 [mEh]       3.65429680 [kcal/mol]      15.28957782 [kJ/mol]
      Exch10                        5.82349264 [mEh]       3.65429680 [kcal/mol]      15.28957782 [kJ/mol]
      Exch10(S^2)                   5.81573183 [mEh]       3.64942682 [kcal/mol]      15.26920181 [kJ/mol]

    Induction                      -0.69508973 [mEh]      -0.43617539 [kcal/mol]      -1.82495783 [kJ/mol]
      Ind20,r                      -1.39175356 [mEh]      -0.87333855 [kcal/mol]      -3.65404848 [kJ/mol]
      Exch-Ind20,r                  1.04710093 [mEh]       0.65706575 [kcal/mol]       2.74916311 [kJ/mol]
      delta HF,r (2)               -0.35043710 [mEh]      -0.21990260 [kcal/mol]      -0.92007247 [kJ/mol]

    Dispersion                     -7.36739779 [mEh]      -4.62311191 [kcal/mol]     -19.34310024 [kJ/mol]
      Disp20                       -8.00410868 [mEh]      -5.02265402 [kcal/mol]     -21.01478443 [kJ/mol]
      Exch-Disp20                   0.63671088 [mEh]       0.39954211 [kcal/mol]       1.67168420 [kJ/mol]
      Disp20 (SS)                  -4.00205434 [mEh]      -2.51132701 [kcal/mol]     -10.50739222 [kJ/mol]
      Disp20 (OS)                  -4.00205434 [mEh]      -2.51132701 [kcal/mol]     -10.50739222 [kJ/mol]
      Exch-Disp20 (SS)              0.41715885 [mEh]       0.26177113 [kcal/mol]       1.09525040 [kJ/mol]
      Exch-Disp20 (OS)              0.21955204 [mEh]       0.13777098 [kcal/mol]       0.57643379 [kJ/mol]

  Total HF                          3.16489033 [mEh]       1.98599866 [kcal/mol]       8.30941841 [kJ/mol]
  Total SAPT0                      -4.20250747 [mEh]      -2.63711325 [kcal/mol]     -11.03368183 [kJ/mol]

  Special recipe for scaled SAPT0 (see Manual):
    Electrostatics sSAPT0          -1.96351258 [mEh]      -1.23212275 [kcal/mol]      -5.15520158 [kJ/mol]
    Exchange sSAPT0                 5.82349264 [mEh]       3.65429680 [kcal/mol]      15.28957782 [kJ/mol]
    Induction sSAPT0               -0.69089222 [mEh]      -0.43354141 [kcal/mol]      -1.81393727 [kJ/mol]
    Dispersion sSAPT0              -7.36484541 [mEh]      -4.62151027 [kcal/mol]     -19.33639896 [kJ/mol]
  Total sSAPT0                     -4.19575757 [mEh]      -2.63287763 [kcal/mol]     -11.01595998 [kJ/mol]
  --------------------------------------------------------------------------------------------------------

*** Psi4 exiting successfully. Buy a developer a beer!
