                               Psi4 1.3.2 release

  ==> Input File <==

--------------------------------------------------------------------------
# Any line starting with the # character is a comment line
#! Sample  computation

memory 22 gb

molecule Dimer {
0 1
 C -2.332971   -0.116251   -0.015642
 O -1.670133    0.632137   -0.913665
 O -1.885932   -0.497635    1.038397
 H -3.339909   -0.329268   -0.382897
 H -0.782402    0.789785   -0.548305

 --
0 1
 C   1.577572    1.194728    0.334174
 C   2.358226   -0.101774    0.153819
 C   1.502569   -1.199290   -0.467501
 H   1.226499    1.569854   -0.631426
 H   0.717891    1.036097    0.989346
 H   2.186831    1.980588    0.779285
 H   2.732193   -0.434970    1.123396
 H   3.233623    0.083352   -0.471364
 H   2.065552   -2.123375   -0.593584
 H   0.636861   -1.415599    0.160292
 H   1.139003   -0.896959   -1.451691

units angstrom

no_reorient
symmetry c1
}

set globals{
  basis jun-cc-pvtz
}

energy('sapt0')

--------------------------------------------------------------------------

  //              Dimer HF             //
    Molecular point group: c1
  Charge       = 0
  Multiplicity = 1
  Basis Set: JUN-CC-PVTZ
    Blend: JUN-CC-PVTZ
  Basis Set: (JUN-CC-PVTZ AUX)
    Blend: JUN-CC-PVTZ-JKFIT
  @DF-RHF Final Energy:  -307.15016525620121
    Total Energy =                       -307.1501652562012055
  //            Monomer A HF           //
    Molecular point group: c1
  Multiplicity = 1
  Basis Set: JUN-CC-PVTZ
    Blend: JUN-CC-PVTZ
  Basis Set: (JUN-CC-PVTZ AUX)
    Blend: JUN-CC-PVTZ-JKFIT
  @DF-RHF Final Energy:  -188.84287911151597
    Total Energy =                       -188.8428791115159697
  //            Monomer B HF           //
    Molecular point group: c1

    Geometry (in Angstrom), charge = 0, multiplicity = 1:

       Center              X                  Y                   Z               Mass
    ------------   -----------------  -----------------  -----------------  -----------------
      Gh(C)          -2.225038750568    -0.113384719736    -0.026947823263    12.000000000000
      Gh(O)          -1.562200750568     0.635003280264    -0.924970823263    15.994914619570
      Gh(O)          -1.777999750568    -0.494768719736     1.027091176737    15.994914619570
      Gh(H)          -3.231976750568    -0.326401719736    -0.394202823263     1.007825032230
      Gh(H)          -0.674469750568     0.792651280264    -0.559610823263     1.007825032230
         C            1.685504249432     1.197594280264     0.322868176737    12.000000000000
         C            2.466158249432    -0.098907719736     0.142513176737    12.000000000000
         C            1.610501249432    -1.196423719736    -0.478806823263    12.000000000000
         H            1.334431249432     1.572720280264    -0.642731823263     1.007825032230
         H            0.825823249432     1.038963280264     0.978040176737     1.007825032230
         H            2.294763249432     1.983454280264     0.767979176737     1.007825032230
         H            2.840125249432    -0.432103719736     1.112090176737     1.007825032230
         H            3.341555249432     0.086218280264    -0.482669823263     1.007825032230
         H            2.173484249432    -2.120508719736    -0.604889823263     1.007825032230
         H            0.744793249432    -1.412732719736     0.148986176737     1.007825032230
         H            1.246935249432    -0.894092719736    -1.462996823263     1.007825032230

  Charge       = 0
  Multiplicity = 1
  Basis Set: JUN-CC-PVTZ
    Blend: JUN-CC-PVTZ
  Basis Set: (JUN-CC-PVTZ AUX)
    Blend: JUN-CC-PVTZ-JKFIT

    Orbital Energies [Eh]
    ---------------------

    Doubly Occupied:

       1A    -11.215538     2A    -11.208201     3A    -11.207974
       4A     -1.053902     5A     -0.924572     6A     -0.799479
       7A     -0.625693     8A     -0.597874     9A     -0.547230
      10A     -0.531627    11A     -0.474946    12A     -0.474225
      13A     -0.468900

  @DF-RHF Final Energy:  -118.30797420027586

   => Energetics <=

    Nuclear Repulsion Energy =             82.7976446380069007
    One-Electron Energy =                -321.9509150947573630
    Two-Electron Energy =                 120.8452962564746116
    Total Energy =                       -118.3079742002758650

  Dipole Moment: [D]
     X:     0.0903      Y:    -0.0099      Z:     0.0250     Total:     0.0943

    SAPT Results
  --------------------------------------------------------------------------------------------------------
    Electrostatics                 -3.27297523 [mEh]      -2.05382297 [kcal/mol]      -8.59319530 [kJ/mol]
      Elst10,r                     -3.27297523 [mEh]      -2.05382297 [kcal/mol]      -8.59319530 [kJ/mol]

    Exchange                        5.82969290 [mEh]       3.65818753 [kcal/mol]      15.30585661 [kJ/mol]
      Exch10                        5.82969290 [mEh]       3.65818753 [kcal/mol]      15.30585661 [kJ/mol]
      Exch10(S^2)                   5.81028707 [mEh]       3.64601018 [kcal/mol]      15.25490661 [kJ/mol]

    Induction                      -1.86866208 [mEh]      -1.17260316 [kcal/mol]      -4.90617161 [kJ/mol]
      Ind20,r                      -2.62709090 [mEh]      -1.64852443 [kcal/mol]      -6.89742621 [kJ/mol]
      Exch-Ind20,r                  1.35716971 [mEh]       0.85163685 [kcal/mol]       3.56324859 [kJ/mol]
      delta HF,r (2)               -0.59874089 [mEh]      -0.37571558 [kcal/mol]      -1.57199399 [kJ/mol]

    Dispersion                     -4.81291833 [mEh]      -3.02015185 [kcal/mol]     -12.63631534 [kJ/mol]
      Disp20                       -5.32558562 [mEh]      -3.34185543 [kcal/mol]     -13.98232312 [kJ/mol]
      Exch-Disp20                   0.51266729 [mEh]       0.32170358 [kcal/mol]       1.34600777 [kJ/mol]
      Disp20 (SS)                  -2.66279281 [mEh]      -1.67092771 [kcal/mol]      -6.99116156 [kJ/mol]
      Disp20 (OS)                  -2.66279281 [mEh]      -1.67092771 [kcal/mol]      -6.99116156 [kJ/mol]
      Exch-Disp20 (SS)              0.33669845 [mEh]       0.21128147 [kcal/mol]       0.88400167 [kJ/mol]
      Exch-Disp20 (OS)              0.17596883 [mEh]       0.11042211 [kcal/mol]       0.46200611 [kJ/mol]

  Total HF                          0.68805559 [mEh]       0.43176140 [kcal/mol]       1.80648970 [kJ/mol]
  Total SAPT0                      -4.12486274 [mEh]      -2.58839045 [kcal/mol]     -10.82982564 [kJ/mol]

  Special recipe for scaled SAPT0 (see Manual):
    Electrostatics sSAPT0          -3.27297523 [mEh]      -2.05382297 [kcal/mol]      -8.59319530 [kJ/mol]
    Exchange sSAPT0                 5.82969290 [mEh]       3.65818753 [kcal/mol]      15.30585661 [kJ/mol]
    Induction sSAPT0               -1.85501814 [mEh]      -1.16404146 [kcal/mol]      -4.87034946 [kJ/mol]
    Dispersion sSAPT0              -4.80776437 [mEh]      -3.01691769 [kcal/mol]     -12.62278362 [kJ/mol]
  Total sSAPT0                     -4.10606484 [mEh]      -2.57659459 [kcal/mol]     -10.78047176 [kJ/mol]
  --------------------------------------------------------------------------------------------------------

*** Psi4 exiting successfully. Buy a developer a beer!
