                               Psi4 1.3.2 release

  ==> Input File <==

--------------------------------------------------------------------------
# Any line starting with the # character is a comment line
#! Sample  computation

memory 22 gb

molecule Dimer {

0 1
 C    1.90112100   -2.52738800    0.33524500
 H    2.73368100   -2.55542800    1.03952200
 H    0.97620100   -2.56332700    0.91243800
 H    1.94839000   -3.42846400   -0.27616400
 C    1.95917800   -1.26511900   -0.51621700
 H    1.13809600   -1.26696300   -1.23881300
 H    2.88321500   -1.25626100   -1.10084600
 C    1.88566500    0.00651000    0.31911900
 H    0.95834700    0.00325300    0.90179900
 H    2.70562300    0.00961300    1.04510300
 C    1.94994400    1.27836900   -0.51662700
 H    1.12876900    1.27408900   -1.23911100
 H    2.87394600    1.27594900   -1.10138100
 C    1.88294900    2.54043900    0.33447600
 H    2.71549900    2.57476000    1.03849000
 H    1.92346700    3.44165300   -0.27721700
 H    0.95796300    2.56981300    0.91194000

 --
0 1
 C    -1.90137400    2.52746200   -0.33449600
 H    -0.97659800    2.56356000   -0.91192200
 H    -2.73412800    2.55568300   -1.03854500
 H    -1.94849600    3.42836700    0.27718200
 C    -1.95918400    1.26496000    0.51664000
 H    -2.88310600    1.25588400    1.10146100
 H    -1.13794900    1.26666900    1.23906800
 C    -1.88574100   -0.00640900   -0.31910200
 H    -2.70583700   -0.00931000   -1.04493700
 H    -0.95851900   -0.00292700   -0.90195200
 C    -1.94983700   -1.27853300    0.51624700
 H    -2.87381300   -1.27641500    1.10105200
 H    -1.12862500   -1.27439300    1.23868900
 C    -1.88271800   -2.54031800   -0.33527500
 H    -0.95771300   -2.56943400   -0.91273000
 H    -1.92318100   -3.44173200    0.27612400
 H    -2.71525000   -2.57447500   -1.03932100

units angstrom

no_reorient
symmetry c1
}

set globals{
  basis jun-cc-pVTZ
  scf_type DF
  freeze_core True
}

energy('sapt0')

--------------------------------------------------------------------------

  //              Dimer HF             //
    Molecular point group: c1
  Charge       = 0
  Multiplicity = 1
  Basis Set: JUN-CC-PVTZ
    Blend: JUN-CC-PVTZ
  Basis Set: (JUN-CC-PVTZ AUX)
    Blend: JUN-CC-PVTZ-JKFIT
  @DF-RHF Final Energy:  -392.80206998289412
    Total Energy =                       -392.8020699828941815
  //            Monomer A HF           //
    Molecular point group: c1
  Multiplicity = 1
  Basis Set: JUN-CC-PVTZ
    Blend: JUN-CC-PVTZ
  Basis Set: (JUN-CC-PVTZ AUX)
    Blend: JUN-CC-PVTZ-JKFIT
  @DF-RHF Final Energy:  -196.40373145488672
    Total Energy =                       -196.4037314548867244
  //            Monomer B HF           //
    Molecular point group: c1

    Geometry (in Angstrom), charge = 0, multiplicity = 1:

       Center              X                  Y                   Z               Mass
    ------------   -----------------  -----------------  -----------------  -----------------
      Gh(C)           1.901120876140    -2.527386899236     0.335244664019    12.000000000000
      Gh(H)           2.733680876140    -2.555426899236     1.039521664019     1.007825032230
      Gh(H)           0.976200876140    -2.563325899236     0.912437664019     1.007825032230
      Gh(H)           1.948389876140    -3.428462899236    -0.276164335981     1.007825032230
      Gh(C)           1.959177876140    -1.265117899236    -0.516217335981    12.000000000000
      Gh(H)           1.138095876140    -1.266961899236    -1.238813335981     1.007825032230
      Gh(H)           2.883214876140    -1.256259899236    -1.100846335981     1.007825032230
      Gh(C)           1.885664876140     0.006511100764     0.319118664019    12.000000000000
      Gh(H)           0.958346876140     0.003254100764     0.901798664019     1.007825032230
      Gh(H)           2.705622876140     0.009614100764     1.045102664019     1.007825032230
      Gh(C)           1.949943876140     1.278370100764    -0.516627335981    12.000000000000
      Gh(H)           1.128768876140     1.274090100764    -1.239111335981     1.007825032230
      Gh(H)           2.873945876140     1.275950100764    -1.101381335981     1.007825032230
      Gh(C)           1.882948876140     2.540440100764     0.334475664019    12.000000000000
      Gh(H)           2.715498876140     2.574761100764     1.038489664019     1.007825032230
      Gh(H)           1.923466876140     3.441654100764    -0.277217335981     1.007825032230
      Gh(H)           0.957962876140     2.569814100764     0.911939664019     1.007825032230
         C           -1.901374123860     2.527463100764    -0.334496335981    12.000000000000
         H           -0.976598123860     2.563561100764    -0.911922335981     1.007825032230
         H           -2.734128123860     2.555684100764    -1.038545335981     1.007825032230
         H           -1.948496123860     3.428368100764     0.277181664019     1.007825032230
         C           -1.959184123860     1.264961100764     0.516639664019    12.000000000000
         H           -2.883106123860     1.255885100764     1.101460664019     1.007825032230
         H           -1.137949123860     1.266670100764     1.239067664019     1.007825032230
         C           -1.885741123860    -0.006407899236    -0.319102335981    12.000000000000
         H           -2.705837123860    -0.009308899236    -1.044937335981     1.007825032230
         H           -0.958519123860    -0.002925899236    -0.901952335981     1.007825032230
         C           -1.949837123860    -1.278531899236     0.516246664019    12.000000000000
         H           -2.873813123860    -1.276413899236     1.101051664019     1.007825032230
         H           -1.128625123860    -1.274391899236     1.238688664019     1.007825032230
         C           -1.882718123860    -2.540316899236    -0.335275335981    12.000000000000
         H           -0.957713123860    -2.569432899236    -0.912730335981     1.007825032230
         H           -1.923181123860    -3.441730899236     0.276123664019     1.007825032230
         H           -2.715250123860    -2.574473899236    -1.039321335981     1.007825032230

  Charge       = 0
  Multiplicity = 1
  Basis Set: JUN-CC-PVTZ
    Blend: JUN-CC-PVTZ
  Basis Set: (JUN-CC-PVTZ AUX)
    Blend: JUN-CC-PVTZ-JKFIT

    Orbital Energies [Eh]
    ---------------------

    Doubly Occupied:

       1A    -11.212980     2A    -11.212907     3A    -11.210557
       4A    -11.207406     5A    -11.207404     6A     -1.080863
       7A     -1.014959     8A     -0.918590     9A     -0.819390
      10A     -0.784536    11A     -0.647055    12A     -0.598015
      13A     -0.592631    14A     -0.553463    15A     -0.547085
      16A     -0.525620    17A     -0.494207    18A     -0.475742
      19A     -0.461631    20A     -0.459042    21A     -0.446454

  @DF-RHF Final Energy:  -196.40373091003266

   => Energetics <=

    Nuclear Repulsion Energy =            185.5550015849144359
    One-Electron Energy =                -630.9763858274225186
    Two-Electron Energy =                 249.0176533324754473
    Total Energy =                       -196.4037309100326638

  Dipole Moment: [D]
     X:    -0.0074      Y:    -0.0000      Z:     0.0840     Total:     0.0843

    SAPT Results
  --------------------------------------------------------------------------------------------------------
    Electrostatics                 -2.61290972 [mEh]      -1.63962560 [kcal/mol]      -6.86019353 [kJ/mol]
      Elst10,r                     -2.61290972 [mEh]      -1.63962560 [kcal/mol]      -6.86019353 [kJ/mol]

    Exchange                        8.79000138 [mEh]       5.51580914 [kcal/mol]      23.07814544 [kJ/mol]
      Exch10                        8.79000138 [mEh]       5.51580914 [kcal/mol]      23.07814544 [kJ/mol]
      Exch10(S^2)                   8.78056630 [mEh]       5.50988854 [kcal/mol]      23.05337365 [kJ/mol]

    Induction                      -0.78470963 [mEh]      -0.49241273 [kcal/mol]      -2.06025486 [kJ/mol]
      Ind20,r                      -1.33513955 [mEh]      -0.83781272 [kcal/mol]      -3.50540841 [kJ/mol]
      Exch-Ind20,r                  1.16181843 [mEh]       0.72905207 [kcal/mol]       3.05035386 [kJ/mol]
      delta HF,r (2)               -0.61138851 [mEh]      -0.38365208 [kcal/mol]      -1.60520031 [kJ/mol]

    Dispersion                    -11.52298689 [mEh]      -7.23078344 [kcal/mol]     -30.25359791 [kJ/mol]
      Disp20                      -12.51842232 [mEh]      -7.85542860 [kcal/mol]     -32.86711328 [kJ/mol]
      Exch-Disp20                   0.99543544 [mEh]       0.62464517 [kcal/mol]       2.61351538 [kJ/mol]
      Disp20 (SS)                  -6.25921116 [mEh]      -3.92771430 [kcal/mol]     -16.43355664 [kJ/mol]
      Disp20 (OS)                  -6.25921116 [mEh]      -3.92771430 [kcal/mol]     -16.43355664 [kJ/mol]
      Exch-Disp20 (SS)              0.65587852 [mEh]       0.41156998 [kcal/mol]       1.72200881 [kJ/mol]
      Exch-Disp20 (OS)              0.33955692 [mEh]       0.21307518 [kcal/mol]       0.89150656 [kJ/mol]

  Total HF                          5.39238203 [mEh]       3.38377081 [kcal/mol]      14.15769706 [kJ/mol]
  Total SAPT0                      -6.13060486 [mEh]      -3.84701263 [kcal/mol]     -16.09590085 [kJ/mol]

  Special recipe for scaled SAPT0 (see Manual):
    Electrostatics sSAPT0          -2.61290972 [mEh]      -1.63962560 [kcal/mol]      -6.86019353 [kJ/mol]
    Exchange sSAPT0                 8.79000138 [mEh]       5.51580914 [kcal/mol]      23.07814544 [kJ/mol]
    Induction sSAPT0               -0.78096034 [mEh]      -0.49006001 [kcal/mol]      -2.05041110 [kJ/mol]
    Dispersion sSAPT0             -11.51977453 [mEh]      -7.22876765 [kcal/mol]     -30.24516386 [kJ/mol]
  Total sSAPT0                     -6.12364321 [mEh]      -3.84264413 [kcal/mol]     -16.07762304 [kJ/mol]
  --------------------------------------------------------------------------------------------------------

*** Psi4 exiting successfully. Buy a developer a beer!
