                               Psi4 1.3.2 release

  ==> Input File <==

--------------------------------------------------------------------------
# Any line starting with the # character is a comment line
#! Sample  computation

memory 22 gb

molecule Dimer {

0 1
 C    1.16247300    1.98798700   -0.12440300
 C    2.19033800    1.16461500    0.10223100
 C    2.35879800   -0.17956600   -0.53196300
 C    2.47776600   -1.28976100    0.51266000
 H    1.09039400    2.94804900    0.36807900
 H    0.37443600    1.71564600   -0.81535800
 H    2.96252000    1.46886700    0.80406400
 H    1.51476000   -0.37330000   -1.19692400
 H    3.26155200   -0.17666800   -1.14910500
 H    3.32304700   -1.10557800    1.17666100
 H    1.57809200   -1.34468400    1.12552500
 H    2.62856900   -2.26038800    0.04028300

 --
0 1
 C    -1.14767200   -1.90084000   -0.48419000
 C    -1.40591300   -0.81482200    0.25014100
 C    -2.75441900   -0.18244500    0.38767900
 C    -2.75713300    1.25870300   -0.12377700
 H    -0.14867800   -2.30882200   -0.55594900
 H    -1.93684800   -2.40787200   -1.02580700
 H    -0.58899400   -0.32564700    0.77425300
 H    -3.49219500   -0.77694000   -0.15483100
 H    -3.04981500   -0.18610300    1.44028000
 H    -2.02542900    1.86051800    0.41605800
 H    -2.50110500    1.28942300   -1.18286200
 H    -3.73573200    1.72027600    0.00535700

units angstrom

no_reorient
symmetry c1
}

set globals{
  basis jun-cc-pVTZ
  scf_type DF
  freeze_core True
}

energy('sapt0')

--------------------------------------------------------------------------

  //              Dimer HF             //
    Molecular point group: c1
  Charge       = 0
  Multiplicity = 1
  Basis Set: JUN-CC-PVTZ
    Blend: JUN-CC-PVTZ
  Basis Set: (JUN-CC-PVTZ AUX)
    Blend: JUN-CC-PVTZ-JKFIT
  @DF-RHF Final Energy:  -312.32596264392481
    Total Energy =                       -312.3259626439248109
  //            Monomer A HF           //
    Molecular point group: c1
  Multiplicity = 1
  Basis Set: JUN-CC-PVTZ
    Blend: JUN-CC-PVTZ
  Basis Set: (JUN-CC-PVTZ AUX)
    Blend: JUN-CC-PVTZ-JKFIT
  @DF-RHF Final Energy:  -156.16444490032120
    Total Energy =                       -156.1644449003212003
  //            Monomer B HF           //
    Molecular point group: c1

    Geometry (in Angstrom), charge = 0, multiplicity = 1:

       Center              X                  Y                   Z               Mass
    ------------   -----------------  -----------------  -----------------  -----------------
      Gh(C)           1.155876828808     1.985657735300    -0.123785882642    12.000000000000
      Gh(C)           2.183741828808     1.162285735300     0.102848117358    12.000000000000
      Gh(C)           2.352201828808    -0.181895264700    -0.531345882642    12.000000000000
      Gh(C)           2.471169828808    -1.292090264700     0.513277117358    12.000000000000
      Gh(H)           1.083797828808     2.945719735300     0.368696117358     1.007825032230
      Gh(H)           0.367839828808     1.713316735300    -0.814740882642     1.007825032230
      Gh(H)           2.955923828808     1.466537735300     0.804681117358     1.007825032230
      Gh(H)           1.508163828808    -0.375629264700    -1.196306882642     1.007825032230
      Gh(H)           3.254955828808    -0.178997264700    -1.148487882642     1.007825032230
      Gh(H)           3.316450828808    -1.107907264700     1.177278117358     1.007825032230
      Gh(H)           1.571495828808    -1.347013264700     1.126142117358     1.007825032230
      Gh(H)           2.621972828808    -2.262717264700     0.040900117358     1.007825032230
         C           -1.154268171192    -1.903169264700    -0.483572882642    12.000000000000
         C           -1.412509171192    -0.817151264700     0.250758117358    12.000000000000
         C           -2.761015171192    -0.184774264700     0.388296117358    12.000000000000
         C           -2.763729171192     1.256373735300    -0.123159882642    12.000000000000
         H           -0.155274171192    -2.311151264700    -0.555331882642     1.007825032230
         H           -1.943444171192    -2.410201264700    -1.025189882642     1.007825032230
         H           -0.595590171192    -0.327976264700     0.774870117358     1.007825032230
         H           -3.498791171192    -0.779269264700    -0.154213882642     1.007825032230
         H           -3.056411171192    -0.188432264700     1.440897117358     1.007825032230
         H           -2.032025171192     1.858188735300     0.416675117358     1.007825032230
         H           -2.507701171192     1.287093735300    -1.182244882642     1.007825032230
         H           -3.742328171192     1.717946735300     0.005974117358     1.007825032230

  Charge       = 0
  Multiplicity = 1
  Basis Set: JUN-CC-PVTZ
    Blend: JUN-CC-PVTZ
  Basis Set: (JUN-CC-PVTZ AUX)
    Blend: JUN-CC-PVTZ-JKFIT

    Orbital Energies [Eh]
    ---------------------

    Doubly Occupied:

       1A    -11.231363     2A    -11.224754     3A    -11.217653
       4A    -11.214575     5A     -1.081051     6A     -0.988123
       7A     -0.855917     8A     -0.755787     9A     -0.643398
      10A     -0.606728    11A     -0.585336    12A     -0.535495
      13A     -0.517398    14A     -0.486929    15A     -0.476885
      16A     -0.357325

  @DF-RHF Final Energy:  -156.16445213766772

   => Energetics <=

    Nuclear Repulsion Energy =            117.4736612952341801
    One-Electron Energy =                -441.7187949372403182
    Two-Electron Energy =                 168.0806815043384006
    Total Energy =                       -156.1644521376677233

  Dipole Moment: [D]
     X:    -0.2573      Y:     0.3204      Z:     0.1480     Total:     0.4367

    SAPT Results
  --------------------------------------------------------------------------------------------------------
    Electrostatics                 -2.76331680 [mEh]      -1.73400747 [kcal/mol]      -7.25508725 [kJ/mol]
      Elst10,r                     -2.76331680 [mEh]      -1.73400747 [kcal/mol]      -7.25508725 [kJ/mol]

    Exchange                        6.34618840 [mEh]       3.98229335 [kcal/mol]      16.66191536 [kJ/mol]
      Exch10                        6.34618840 [mEh]       3.98229335 [kcal/mol]      16.66191536 [kJ/mol]
      Exch10(S^2)                   6.33215947 [mEh]       3.97349006 [kcal/mol]      16.62508239 [kJ/mol]

    Induction                      -0.64847754 [mEh]      -0.40692580 [kcal/mol]      -1.70257756 [kJ/mol]
      Ind20,r                      -1.32500991 [mEh]      -0.83145627 [kcal/mol]      -3.47881303 [kJ/mol]
      Exch-Ind20,r                  1.15410319 [mEh]       0.72421068 [kcal/mol]       3.03009750 [kJ/mol]
      delta HF,r (2)               -0.47757082 [mEh]      -0.29968022 [kcal/mol]      -1.25386202 [kJ/mol]

    Dispersion                     -7.18385728 [mEh]      -4.50793850 [kcal/mol]     -18.86121469 [kJ/mol]
      Disp20                       -7.91787037 [mEh]      -4.96853867 [kcal/mol]     -20.78836580 [kJ/mol]
      Exch-Disp20                   0.73401309 [mEh]       0.46060017 [kcal/mol]       1.92715111 [kJ/mol]
      Disp20 (SS)                  -3.95893519 [mEh]      -2.48426934 [kcal/mol]     -10.39418290 [kJ/mol]
      Disp20 (OS)                  -3.95893519 [mEh]      -2.48426934 [kcal/mol]     -10.39418290 [kJ/mol]
      Exch-Disp20 (SS)              0.48515488 [mEh]       0.30443928 [kcal/mol]       1.27377396 [kJ/mol]
      Exch-Disp20 (OS)              0.24885821 [mEh]       0.15616089 [kcal/mol]       0.65337715 [kJ/mol]

  Total HF                          2.93439406 [mEh]       1.84136008 [kcal/mol]       7.70425055 [kJ/mol]
  Total SAPT0                      -4.24946322 [mEh]      -2.66657843 [kcal/mol]     -11.15696413 [kJ/mol]

  Special recipe for scaled SAPT0 (see Manual):
    Electrostatics sSAPT0          -2.76331680 [mEh]      -1.73400747 [kcal/mol]      -7.25508725 [kJ/mol]
    Exchange sSAPT0                 6.34618840 [mEh]       3.98229335 [kcal/mol]      16.66191536 [kJ/mol]
    Induction sSAPT0               -0.64078977 [mEh]      -0.40210165 [kcal/mol]      -1.68239331 [kJ/mol]
    Dispersion sSAPT0              -7.17896783 [mEh]      -4.50487033 [kcal/mol]     -18.84837745 [kJ/mol]
  Total sSAPT0                     -4.23688599 [mEh]      -2.65868610 [kcal/mol]     -11.12394264 [kJ/mol]
  --------------------------------------------------------------------------------------------------------

*** Psi4 exiting successfully. Buy a developer a beer!
