                               Psi4 1.3.2 release

  ==> Input File <==

--------------------------------------------------------------------------
# Any line starting with the # character is a comment line
#! Sample  computation

memory 22 gb

molecule Dimer {
0 1
 C  0.346793    2.564580   -0.219772
 C  1.516699    1.918880   -0.189249
 C  1.770378    0.641839    0.544700
 C  2.272110   -0.468238   -0.379717
 C  2.515746   -1.768359    0.374652
 H -0.511051    2.191244    0.325998
 H  0.223359    3.481182   -0.779909
 H  2.353482    2.328973   -0.748672
 H  2.521854    0.808945    1.323588
 H  0.855541    0.314921    1.046194
 H  1.538037   -0.629588   -1.172125
 H  3.193418   -0.138737   -0.867297
 H  3.254162   -1.624913    1.164838
 H  1.591704   -2.119298    0.835546
 H  2.880938   -2.553131   -0.287585

 --
0 1
 C -1.186067   -2.129815   -0.576305
 C -1.392856   -0.826083   -0.368119
 C -2.319638   -0.265299    0.662958
 C -3.402811    0.608509    0.029921
 H -0.512652   -2.477422   -1.347811
 H -1.688373   -2.877708    0.025029
 H -0.874863   -0.102863   -0.992748
 H -2.773794   -1.082172    1.227533
 H -1.749443    0.335962    1.377640
 H -2.955582    1.425140   -0.538204
 H -4.014572    0.021979   -0.654920

 H -4.054287    1.041407    0.788485

units angstrom

no_reorient
symmetry c1
}

set globals{
  basis jun-cc-pvtz
}

energy('sapt0')

--------------------------------------------------------------------------

  //              Dimer HF             //
    Molecular point group: c1
  Charge       = 0
  Multiplicity = 1
  Basis Set: JUN-CC-PVTZ
    Blend: JUN-CC-PVTZ
  Basis Set: (JUN-CC-PVTZ AUX)
    Blend: JUN-CC-PVTZ-JKFIT
  @DF-RHF Final Energy:  -351.37259542696148
    Total Energy =                       -351.3725954269614249
  //            Monomer A HF           //
    Molecular point group: c1
  Multiplicity = 1
  Basis Set: JUN-CC-PVTZ
    Blend: JUN-CC-PVTZ
  Basis Set: (JUN-CC-PVTZ AUX)
    Blend: JUN-CC-PVTZ-JKFIT
  @DF-RHF Final Energy:  -195.21231274866091
    Total Energy =                       -195.2123127486609064
  //            Monomer B HF           //
    Molecular point group: c1

    Geometry (in Angstrom), charge = 0, multiplicity = 1:

       Center              X                  Y                   Z               Mass
    ------------   -----------------  -----------------  -----------------  -----------------
      Gh(C)           0.341113036937     2.551553846134    -0.214064774230    12.000000000000
      Gh(C)           1.511019036937     1.905853846134    -0.183541774230    12.000000000000
      Gh(C)           1.764698036937     0.628812846134     0.550407225770    12.000000000000
      Gh(C)           2.266430036937    -0.481264153866    -0.374009774230    12.000000000000
      Gh(C)           2.510066036937    -1.781385153866     0.380359225770    12.000000000000
      Gh(H)          -0.516730963063     2.178217846134     0.331705225770     1.007825032230
      Gh(H)           0.217679036937     3.468155846134    -0.774201774230     1.007825032230
      Gh(H)           2.347802036937     2.315946846134    -0.742964774230     1.007825032230
      Gh(H)           2.516174036937     0.795918846134     1.329295225770     1.007825032230
      Gh(H)           0.849861036937     0.301894846134     1.051901225770     1.007825032230
      Gh(H)           1.532357036937    -0.642614153866    -1.166417774230     1.007825032230
      Gh(H)           3.187738036937    -0.151763153866    -0.861589774230     1.007825032230
      Gh(H)           3.248482036937    -1.637939153866     1.170545225770     1.007825032230
      Gh(H)           1.586024036937    -2.132324153866     0.841253225770     1.007825032230
      Gh(H)           2.875258036937    -2.566157153866    -0.281877774230     1.007825032230
         C           -1.191746963063    -2.142841153866    -0.570597774230    12.000000000000
         C           -1.398535963063    -0.839109153866    -0.362411774230    12.000000000000
         C           -2.325317963063    -0.278325153866     0.668665225770    12.000000000000
         C           -3.408490963063     0.595482846134     0.035628225770    12.000000000000
         H           -0.518331963063    -2.490448153866    -1.342103774230     1.007825032230
         H           -1.694052963063    -2.890734153866     0.030736225770     1.007825032230
         H           -0.880542963063    -0.115889153866    -0.987040774230     1.007825032230
         H           -2.779473963063    -1.095198153866     1.233240225770     1.007825032230
         H           -1.755122963063     0.322935846134     1.383347225770     1.007825032230
         H           -2.961261963063     1.412113846134    -0.532496774230     1.007825032230
         H           -4.020251963063     0.008952846134    -0.649212774230     1.007825032230
         H           -4.059966963063     1.028380846134     0.794192225770     1.007825032230

  Charge       = 0
  Multiplicity = 1
  Basis Set: JUN-CC-PVTZ
    Blend: JUN-CC-PVTZ
  Basis Set: (JUN-CC-PVTZ AUX)
    Blend: JUN-CC-PVTZ-JKFIT

    Orbital Energies [Eh]
    ---------------------

    Doubly Occupied:

       1A    -11.231419     2A    -11.224823     3A    -11.217702
       4A    -11.214570     5A     -1.081055     6A     -0.988198
       7A     -0.855754     8A     -0.756056     9A     -0.642816
      10A     -0.606882    11A     -0.586081    12A     -0.535025
      13A     -0.517201    14A     -0.486900    15A     -0.477129
      16A     -0.357293

  @DF-RHF Final Energy:  -156.16446158915559

   => Energetics <=

    Nuclear Repulsion Energy =            117.4543454399480567
    One-Electron Energy =                -441.6798082634144293
    Two-Electron Energy =                 168.0610012343107940
    Total Energy =                       -156.1644615891555929

  Dipole Moment: [D]
     X:    -0.1969      Y:     0.3380      Z:     0.1915     Total:     0.4355

    SAPT Results
  --------------------------------------------------------------------------------------------------------
    Electrostatics                 -3.50988301 [mEh]      -2.20248484 [kcal/mol]      -9.21519657 [kJ/mol]
      Elst10,r                     -3.50988301 [mEh]      -2.20248484 [kcal/mol]      -9.21519657 [kJ/mol]

    Exchange                        8.63382466 [mEh]       5.41780677 [kcal/mol]      22.66810351 [kJ/mol]
      Exch10                        8.63382466 [mEh]       5.41780677 [kcal/mol]      22.66810351 [kJ/mol]
      Exch10(S^2)                   8.60583201 [mEh]       5.40024111 [kcal/mol]      22.59460882 [kJ/mol]

    Induction                      -0.94503079 [mEh]      -0.59301577 [kcal/mol]      -2.48117800 [kJ/mol]
      Ind20,r                      -2.39488789 [mEh]      -1.50281484 [kcal/mol]      -6.28777728 [kJ/mol]
      Exch-Ind20,r                  2.15822517 [mEh]       1.35430674 [kcal/mol]       5.66641942 [kJ/mol]
      delta HF,r (2)               -0.70836808 [mEh]      -0.44450768 [kcal/mol]      -1.85982014 [kJ/mol]

    Dispersion                     -9.42683675 [mEh]      -5.91542937 [kcal/mol]     -24.75015648 [kJ/mol]
      Disp20                      -10.51828069 [mEh]      -6.60032078 [kcal/mol]     -27.61574214 [kJ/mol]
      Exch-Disp20                   1.09144393 [mEh]       0.68489141 [kcal/mol]       2.86558566 [kJ/mol]
      Disp20 (SS)                  -5.25914034 [mEh]      -3.30016039 [kcal/mol]     -13.80787107 [kJ/mol]
      Disp20 (OS)                  -5.25914034 [mEh]      -3.30016039 [kcal/mol]     -13.80787107 [kJ/mol]
      Exch-Disp20 (SS)              0.70513917 [mEh]       0.44248151 [kcal/mol]       1.85134263 [kJ/mol]
      Exch-Disp20 (OS)              0.38630477 [mEh]       0.24240990 [kcal/mol]       1.01424302 [kJ/mol]

  Total HF                          4.17891086 [mEh]       2.62230615 [kcal/mol]      10.97172894 [kJ/mol]
  Total SAPT0                      -5.24792590 [mEh]      -3.29312322 [kcal/mol]     -13.77842754 [kJ/mol]

  Special recipe for scaled SAPT0 (see Manual):
    Electrostatics sSAPT0          -3.50988301 [mEh]      -2.20248484 [kcal/mol]      -9.21519657 [kJ/mol]
    Exchange sSAPT0                 8.63382466 [mEh]       5.41780677 [kcal/mol]      22.66810351 [kJ/mol]
    Induction sSAPT0               -0.92390169 [mEh]      -0.57975706 [kcal/mol]      -2.42570355 [kJ/mol]
    Dispersion sSAPT0              -9.41615148 [mEh]      -5.90872426 [kcal/mol]     -24.72210229 [kJ/mol]
  Total sSAPT0                     -5.21611152 [mEh]      -3.27315939 [kcal/mol]     -13.69489890 [kJ/mol]
  --------------------------------------------------------------------------------------------------------

*** Psi4 exiting successfully. Buy a developer a beer!
