                               Psi4 1.3.2 release

  ==> Input File <==

--------------------------------------------------------------------------
# Any line starting with the # character is a comment line
#! Sample  computation

memory 22 gb

molecule Dimer {

0 1
 C    -2.53245500   -1.52880600   -1.22291800
 C    -2.67901000   -0.23705100   -0.91403700
 C    -2.20015600    0.39398200    0.35348800
 C    -1.19624000    1.51917700    0.09719700
 C    -0.72064700    2.16389300    1.39276000
 H    -2.05624300   -2.21540200   -0.53369600
 H    -2.88635400   -1.92746300   -2.16348700
 H    -3.16027800    0.42195400   -1.63164300
 H    -3.05176300    0.80649300    0.90464900
 H    -1.74577800   -0.36850000    0.99217400
 H    -0.34527400    1.12117000   -0.46011500
 H    -1.66056400    2.27350700   -0.54347600
 H    -1.55769900    2.60162700    1.93858800
 H    -0.25197500    1.42461500    2.04444200
 H     0.00644200    2.95426500    1.20534600

 --
0 1
 C     2.53314400    1.52800500   -1.22339100
 C     2.67998300    0.23663900   -0.91302700
 C     2.19966000   -0.39346900    0.35439100
 C     1.19638200   -1.51913500    0.09765500
 C     0.71959400   -2.16332000    1.39303500
 H     2.05562200    2.21503500   -0.53550500
 H     2.88811700    1.92590100   -2.16387500
 H     3.16260400   -0.42282000   -1.62931200
 H     3.05064800   -0.80544100    0.90691400
 H     1.74433000    0.36939300    0.99193000
 H     0.34582900   -1.12183400   -0.46080000
 H     1.66171000   -2.27361600   -0.54212800
 H     1.55618800   -2.60039900    1.94008900
 H     0.24984900   -1.42388300    2.04377200
 H    -0.00694600   -2.95409900    1.20521900

units angstrom

no_reorient
symmetry c1
}

set globals{
  basis jun-cc-pVTZ
  scf_type DF
  freeze_core True
}

energy('sapt0')

--------------------------------------------------------------------------

  //              Dimer HF             //
    Molecular point group: c1
  Charge       = 0
  Multiplicity = 1
  Basis Set: JUN-CC-PVTZ
    Blend: JUN-CC-PVTZ
  Basis Set: (JUN-CC-PVTZ AUX)
    Blend: JUN-CC-PVTZ-JKFIT
  @DF-RHF Final Energy:  -390.41991744759798
    Total Energy =                       -390.4199174475979817
  //            Monomer A HF           //
    Molecular point group: c1
  Multiplicity = 1
  Basis Set: JUN-CC-PVTZ
    Blend: JUN-CC-PVTZ
  Basis Set: (JUN-CC-PVTZ AUX)
    Blend: JUN-CC-PVTZ-JKFIT
  @DF-RHF Final Energy:  -195.21237191864901
    Total Energy =                       -195.2123719186490121
  //            Monomer B HF           //
    Molecular point group: c1

    Geometry (in Angstrom), charge = 0, multiplicity = 1:

       Center              X                  Y                   Z               Mass
    ------------   -----------------  -----------------  -----------------  -----------------
      Gh(C)          -2.532465794994    -1.528802339349    -1.198077059530    12.000000000000
      Gh(C)          -2.679020794994    -0.237047339349    -0.889196059530    12.000000000000
      Gh(C)          -2.200166794994     0.393985660651     0.378328940470    12.000000000000
      Gh(C)          -1.196250794994     1.519180660651     0.122037940470    12.000000000000
      Gh(C)          -0.720657794994     2.163896660651     1.417600940470    12.000000000000
      Gh(H)          -2.056253794994    -2.215398339349    -0.508855059530     1.007825032230
      Gh(H)          -2.886364794994    -1.927459339349    -2.138646059530     1.007825032230
      Gh(H)          -3.160288794994     0.421957660651    -1.606802059530     1.007825032230
      Gh(H)          -3.051773794994     0.806496660651     0.929489940470     1.007825032230
      Gh(H)          -1.745788794994    -0.368496339349     1.017014940470     1.007825032230
      Gh(H)          -0.345284794994     1.121173660651    -0.435274059530     1.007825032230
      Gh(H)          -1.660574794994     2.273510660651    -0.518635059530     1.007825032230
      Gh(H)          -1.557709794994     2.601630660651     1.963428940470     1.007825032230
      Gh(H)          -0.251985794994     1.424618660651     2.069282940470     1.007825032230
      Gh(H)           0.006431205006     2.954268660651     1.230186940470     1.007825032230
         C            2.533133205006     1.528008660651    -1.198550059530    12.000000000000
         C            2.679972205006     0.236642660651    -0.888186059530    12.000000000000
         C            2.199649205006    -0.393465339349     0.379231940470    12.000000000000
         C            1.196371205006    -1.519131339349     0.122495940470    12.000000000000
         C            0.719583205006    -2.163316339349     1.417875940470    12.000000000000
         H            2.055611205006     2.215038660651    -0.510664059530     1.007825032230
         H            2.888106205006     1.925904660651    -2.139034059530     1.007825032230
         H            3.162593205006    -0.422816339349    -1.604471059530     1.007825032230
         H            3.050637205006    -0.805437339349     0.931754940470     1.007825032230
         H            1.744319205006     0.369396660651     1.016770940470     1.007825032230
         H            0.345818205006    -1.121830339349    -0.435959059530     1.007825032230
         H            1.661699205006    -2.273612339349    -0.517287059530     1.007825032230
         H            1.556177205006    -2.600395339349     1.964929940470     1.007825032230
         H            0.249838205006    -1.423879339349     2.068612940470     1.007825032230
         H           -0.006956794994    -2.954095339349     1.230059940470     1.007825032230

  Charge       = 0
  Multiplicity = 1
  Basis Set: JUN-CC-PVTZ
    Blend: JUN-CC-PVTZ
  Basis Set: (JUN-CC-PVTZ AUX)
    Blend: JUN-CC-PVTZ-JKFIT

    Orbital Energies [Eh]
    ---------------------

    Doubly Occupied:

       1A    -11.230794     2A    -11.222150     3A    -11.219656
       4A    -11.217143     5A    -11.211717     6A     -1.089563
       7A     -1.022128     8A     -0.922545     9A     -0.811783
      10A     -0.757029    11A     -0.650709    12A     -0.616762
      13A     -0.590016    14A     -0.567053    15A     -0.537833
      16A     -0.510864    17A     -0.483471    18A     -0.473174
      19A     -0.469910    20A     -0.356149

  @DF-RHF Final Energy:  -195.21237208345460

   => Energetics <=

    Nuclear Repulsion Energy =            170.4681726033113591
    One-Electron Energy =                -599.4401928900584835
    Two-Electron Energy =                 233.7596482032925280
    Total Energy =                       -195.2123720834545963

  Dipole Moment: [D]
     X:    -0.1056      Y:    -0.3982      Z:     0.1962     Total:     0.4563

    SAPT Results
  --------------------------------------------------------------------------------------------------------
    Electrostatics                 -2.76831256 [mEh]      -1.73714236 [kcal/mol]      -7.26820362 [kJ/mol]
      Elst10,r                     -2.76831256 [mEh]      -1.73714236 [kcal/mol]      -7.26820362 [kJ/mol]

    Exchange                        8.44476181 [mEh]       5.29916804 [kcal/mol]      22.17171908 [kJ/mol]
      Exch10                        8.44476181 [mEh]       5.29916804 [kcal/mol]      22.17171908 [kJ/mol]
      Exch10(S^2)                   8.42352743 [mEh]       5.28584326 [kcal/mol]      22.11596821 [kJ/mol]

    Induction                      -0.84989475 [mEh]      -0.53331701 [kcal/mol]      -2.23139836 [kJ/mol]
      Ind20,r                      -1.62558728 [mEh]      -1.02007142 [kcal/mol]      -4.26797881 [kJ/mol]
      Exch-Ind20,r                  1.40396918 [mEh]       0.88100396 [kcal/mol]       3.68612058 [kJ/mol]
      delta HF,r (2)               -0.62827665 [mEh]      -0.39424955 [kcal/mol]      -1.64954013 [kJ/mol]

    Dispersion                    -10.31656940 [mEh]      -6.47374504 [kcal/mol]     -27.08614923 [kJ/mol]
      Disp20                      -11.30745936 [mEh]      -7.09553788 [kcal/mol]     -29.68773047 [kJ/mol]
      Exch-Disp20                   0.99088996 [mEh]       0.62179284 [kcal/mol]       2.60158124 [kJ/mol]
      Disp20 (SS)                  -5.65372968 [mEh]      -3.54776894 [kcal/mol]     -14.84386524 [kJ/mol]
      Disp20 (OS)                  -5.65372968 [mEh]      -3.54776894 [kcal/mol]     -14.84386524 [kJ/mol]
      Exch-Disp20 (SS)              0.65164342 [mEh]       0.40891242 [kcal/mol]       1.71088955 [kJ/mol]
      Exch-Disp20 (OS)              0.33924655 [mEh]       0.21288042 [kcal/mol]       0.89069169 [kJ/mol]

  Total HF                          4.82655451 [mEh]       3.02870868 [kcal/mol]      12.67211711 [kJ/mol]
  Total SAPT0                      -5.49001489 [mEh]      -3.44503636 [kcal/mol]     -14.41403212 [kJ/mol]

  Special recipe for scaled SAPT0 (see Manual):
    Electrostatics sSAPT0          -2.76831256 [mEh]      -1.73714236 [kcal/mol]      -7.26820362 [kJ/mol]
    Exchange sSAPT0                 8.44476181 [mEh]       5.29916804 [kcal/mol]      22.17171908 [kJ/mol]
    Induction sSAPT0               -0.83925041 [mEh]      -0.52663758 [kcal/mol]      -2.20345164 [kJ/mol]
    Dispersion sSAPT0             -10.30905686 [mEh]      -6.46903085 [kcal/mol]     -27.06642506 [kJ/mol]
  Total sSAPT0                     -5.47185801 [mEh]      -3.43364274 [kcal/mol]     -14.36636123 [kJ/mol]
  --------------------------------------------------------------------------------------------------------

*** Psi4 exiting successfully. Buy a developer a beer!
