                               Psi4 1.3.2 release

  ==> Input File <==

--------------------------------------------------------------------------
# Any line starting with the # character is a comment line
#! Sample  computation

memory 22 gb

molecule Dimer {
0 1
 C 0.972032   -2.438059   -0.353369
 C 1.724017   -1.408297    0.047022
 C 1.601407   -0.012079   -0.471645
 C 1.251921    0.988270    0.630784
 C 1.168094    2.412297    0.097513
 H 0.217261   -2.309183   -1.119417
 H 1.097785   -3.426289    0.067128
 H 2.471475   -1.575482    0.818173
 H 2.548056    0.293042   -0.929966
 H 0.835950    0.024987   -1.250972
 H 0.298130    0.700795    1.077795
 H 2.003801    0.929349    1.422300
 H 2.121520    2.721597   -0.333215
 H 0.409191    2.483119   -0.682692
 H 0.909484    3.120852    0.884254

 --
0 1
 C -2.228625    1.057866   -0.722813
 C -2.208134   -0.239402   -0.403967
 C -2.214490   -0.769764    0.993145
 H -2.224104    1.384297   -1.753567
 H -2.254274    1.820727    0.045553
 H -2.184719   -0.970927   -1.205749
 H -1.317874   -1.362591    1.183785
 H -2.254905    0.042198    1.718797
 H -3.074113   -1.421479    1.157776

units angstrom

no_reorient
symmetry c1
}

set globals{
  basis jun-cc-pvtz
}

energy('sapt0')

--------------------------------------------------------------------------

  //              Dimer HF             //
    Molecular point group: c1
  Charge       = 0
  Multiplicity = 1
  Basis Set: JUN-CC-PVTZ
    Blend: JUN-CC-PVTZ
  Basis Set: (JUN-CC-PVTZ AUX)
    Blend: JUN-CC-PVTZ-JKFIT
  @DF-RHF Final Energy:  -312.32543976015535
    Total Energy =                       -312.3254397601553478
  //            Monomer A HF           //
    Molecular point group: c1
  Multiplicity = 1
  Basis Set: JUN-CC-PVTZ
    Blend: JUN-CC-PVTZ
  Basis Set: (JUN-CC-PVTZ AUX)
    Blend: JUN-CC-PVTZ-JKFIT
  @DF-RHF Final Energy:  -195.21234191808531
    Total Energy =                       -195.2123419180853148
  //            Monomer B HF           //
    Molecular point group: c1

    Geometry (in Angstrom), charge = 0, multiplicity = 1:

       Center              X                  Y                   Z               Mass
    ------------   -----------------  -----------------  -----------------  -----------------
      Gh(C)           0.968516119260    -2.416335128464    -0.343635509290    12.000000000000
      Gh(C)           1.720501119260    -1.386573128464     0.056755490710    12.000000000000
      Gh(C)           1.597891119260     0.009644871536    -0.461911509290    12.000000000000
      Gh(C)           1.248405119260     1.009993871536     0.640517490710    12.000000000000
      Gh(C)           1.164578119260     2.434020871536     0.107246490710    12.000000000000
      Gh(H)           0.213745119260    -2.287459128464    -1.109683509290     1.007825032230
      Gh(H)           1.094269119260    -3.404565128464     0.076861490710     1.007825032230
      Gh(H)           2.467959119260    -1.553758128464     0.827906490710     1.007825032230
      Gh(H)           2.544540119260     0.314765871536    -0.920232509290     1.007825032230
      Gh(H)           0.832434119260     0.046710871536    -1.241238509290     1.007825032230
      Gh(H)           0.294614119260     0.722518871536     1.087528490710     1.007825032230
      Gh(H)           2.000285119260     0.951072871536     1.432033490710     1.007825032230
      Gh(H)           2.118004119260     2.743320871536    -0.323481509290     1.007825032230
      Gh(H)           0.405675119260     2.504842871536    -0.672958509290     1.007825032230
      Gh(H)           0.905968119260     3.142575871536     0.893987490710     1.007825032230
         C           -2.232140880740     1.079589871536    -0.713079509290    12.000000000000
         C           -2.211649880740    -0.217678128464    -0.394233509290    12.000000000000
         C           -2.218005880740    -0.748040128464     1.002878490710    12.000000000000
         H           -2.227619880740     1.406020871536    -1.743833509290     1.007825032230
         H           -2.257789880740     1.842450871536     0.055286490710     1.007825032230
         H           -2.188234880740    -0.949203128464    -1.196015509290     1.007825032230
         H           -1.321389880740    -1.340867128464     1.193518490710     1.007825032230
         H           -2.258420880740     0.063921871536     1.728530490710     1.007825032230
         H           -3.077628880740    -1.399755128464     1.167509490710     1.007825032230

  Charge       = 0
  Multiplicity = 1
  Basis Set: JUN-CC-PVTZ
    Blend: JUN-CC-PVTZ
  Basis Set: (JUN-CC-PVTZ AUX)
    Blend: JUN-CC-PVTZ-JKFIT

    Orbital Energies [Eh]
    ---------------------

    Doubly Occupied:

       1A    -11.234374     2A    -11.220972     3A    -11.217541
       4A     -1.064834     5A     -0.932929     6A     -0.757904
       7A     -0.639704     8A     -0.582727     9A     -0.569056
      10A     -0.523178    11A     -0.492803    12A     -0.357904

  @DF-RHF Final Energy:  -117.11692971118177

   => Energetics <=

    Nuclear Repulsion Energy =             70.8585443609783141
    One-Electron Energy =                -296.7630986072559267
    Two-Electron Energy =                 108.7876245350958300
    Total Energy =                       -117.1169297111817684

  Dipole Moment: [D]
     X:     0.0017      Y:    -0.3502      Z:     0.2415     Total:     0.4254

    SAPT Results
  --------------------------------------------------------------------------------------------------------
    Electrostatics                 -3.76115107 [mEh]      -2.36015793 [kcal/mol]      -9.87490076 [kJ/mol]
      Elst10,r                     -3.76115107 [mEh]      -2.36015793 [kcal/mol]      -9.87490076 [kJ/mol]

    Exchange                        8.52834114 [mEh]       5.35161486 [kcal/mol]      22.39115659 [kJ/mol]
      Exch10                        8.52834114 [mEh]       5.35161486 [kcal/mol]      22.39115659 [kJ/mol]
      Exch10(S^2)                   8.50232414 [mEh]       5.33528895 [kcal/mol]      22.32284896 [kJ/mol]

    Induction                      -0.93532097 [mEh]      -0.58692277 [kcal/mol]      -2.45568486 [kJ/mol]
      Ind20,r                      -2.56909508 [mEh]      -1.61213150 [kcal/mol]      -6.74515820 [kJ/mol]
      Exch-Ind20,r                  2.33540093 [mEh]       1.46548621 [kcal/mol]       6.13159431 [kJ/mol]
      delta HF,r (2)               -0.70162682 [mEh]      -0.44027748 [kcal/mol]      -1.84212096 [kJ/mol]

    Dispersion                     -8.92970366 [mEh]      -5.60347365 [kcal/mol]     -23.44493373 [kJ/mol]
      Disp20                      -10.04504956 [mEh]      -6.30336377 [kcal/mol]     -26.37327400 [kJ/mol]
      Exch-Disp20                   1.11534590 [mEh]       0.69989012 [kcal/mol]       2.92834026 [kJ/mol]
      Disp20 (SS)                  -5.02252478 [mEh]      -3.15168188 [kcal/mol]     -13.18663700 [kJ/mol]
      Disp20 (OS)                  -5.02252478 [mEh]      -3.15168188 [kcal/mol]     -13.18663700 [kJ/mol]
      Exch-Disp20 (SS)              0.72291903 [mEh]       0.45363854 [kcal/mol]       1.89802365 [kJ/mol]
      Exch-Disp20 (OS)              0.39242687 [mEh]       0.24625158 [kcal/mol]       1.03031662 [kJ/mol]

  Total HF                          3.83186911 [mEh]       2.40453417 [kcal/mol]      10.06057097 [kJ/mol]
  Total SAPT0                      -5.09783455 [mEh]      -3.19893948 [kcal/mol]     -13.38436277 [kJ/mol]

  Special recipe for scaled SAPT0 (see Manual):
    Electrostatics sSAPT0          -3.76115107 [mEh]      -2.36015793 [kcal/mol]      -9.87490076 [kJ/mol]
    Exchange sSAPT0                 8.52834114 [mEh]       5.35161486 [kcal/mol]      22.39115659 [kJ/mol]
    Induction sSAPT0               -0.91381641 [mEh]      -0.57342845 [kcal/mol]      -2.39922465 [kJ/mol]
    Dispersion sSAPT0              -8.91943347 [mEh]      -5.59702900 [kcal/mol]     -23.41796934 [kJ/mol]
  Total sSAPT0                     -5.06605980 [mEh]      -3.17900052 [kcal/mol]     -13.30093817 [kJ/mol]
  --------------------------------------------------------------------------------------------------------

*** Psi4 exiting successfully. Buy a developer a beer!
