                               Psi4 1.3.2 release

  ==> Input File <==

--------------------------------------------------------------------------
# Any line starting with the # character is a comment line
#! Sample  computation

memory 22 gb

molecule Dimer {
0 1
 C 2.199678   -1.624977    0.425300
 C 1.327633   -0.617143    0.329009
 C 1.393756    0.472493   -0.692088
 C 1.532712    1.846565   -0.036941
 H 2.109767   -2.376406    1.197416
 H 3.023693   -1.717845   -0.271366
 H 0.514425   -0.549927    1.046636
 H 2.230288    0.287306   -1.369235
 H 0.480525    0.461072   -1.293603
 H 0.693230    2.033311    0.633485
 H 2.451306    1.901888    0.546823
 H 1.552084    2.639519   -0.784322

 --
0 1
 C -2.233844    0.842926    0.858782
 C -2.180304    0.217813   -0.320718
 C -2.071854   -1.263060   -0.490927
 H -2.313010    1.919185    0.922187
 H -2.205478    0.285669    1.787066
 H -2.216445    0.815028   -1.226603
 H -1.153432   -1.529581   -1.017578
 H -2.068032   -1.768243    0.474238
 H -2.905575   -1.648682   -1.079657

units angstrom

no_reorient
symmetry c1
}

set globals{
  basis jun-cc-pvtz
}

energy('sapt0')

--------------------------------------------------------------------------

  //              Dimer HF             //
    Molecular point group: c1
  Charge       = 0
  Multiplicity = 1
  Basis Set: JUN-CC-PVTZ
    Blend: JUN-CC-PVTZ
  Basis Set: (JUN-CC-PVTZ AUX)
    Blend: JUN-CC-PVTZ-JKFIT
  @DF-RHF Final Energy:  -273.27828232302812
    Total Energy =                       -273.2782823230281224
  //            Monomer A HF           //
    Molecular point group: c1
  Multiplicity = 1
  Basis Set: JUN-CC-PVTZ
    Blend: JUN-CC-PVTZ
  Basis Set: (JUN-CC-PVTZ AUX)
    Blend: JUN-CC-PVTZ-JKFIT
  @DF-RHF Final Energy:  -156.16441935155748
    Total Energy =                       -156.1644193515574841
  //            Monomer B HF           //
    Molecular point group: c1

    Geometry (in Angstrom), charge = 0, multiplicity = 1:

       Center              X                  Y                   Z               Mass
    ------------   -----------------  -----------------  -----------------  -----------------
      Gh(C)           2.201633131386    -1.617369022267     0.420906024900    12.000000000000
      Gh(C)           1.329588131386    -0.609535022267     0.324615024900    12.000000000000
      Gh(C)           1.395711131386     0.480100977733    -0.696481975100    12.000000000000
      Gh(C)           1.534667131386     1.854172977733    -0.041334975100    12.000000000000
      Gh(H)           2.111722131386    -2.368798022267     1.193022024900     1.007825032230
      Gh(H)           3.025648131386    -1.710237022267    -0.275759975100     1.007825032230
      Gh(H)           0.516380131386    -0.542319022267     1.042242024900     1.007825032230
      Gh(H)           2.232243131386     0.294913977733    -1.373628975100     1.007825032230
      Gh(H)           0.482480131386     0.468679977733    -1.297996975100     1.007825032230
      Gh(H)           0.695185131386     2.040918977733     0.629091024900     1.007825032230
      Gh(H)           2.453261131386     1.909495977733     0.542429024900     1.007825032230
      Gh(H)           1.554039131386     2.647126977733    -0.788715975100     1.007825032230
         C           -2.231888868614     0.850533977733     0.854388024900    12.000000000000
         C           -2.178348868614     0.225420977733    -0.325111975100    12.000000000000
         C           -2.069898868614    -1.255452022267    -0.495320975100    12.000000000000
         H           -2.311054868614     1.926792977733     0.917793024900     1.007825032230
         H           -2.203522868614     0.293276977733     1.782672024900     1.007825032230
         H           -2.214489868614     0.822635977733    -1.230996975100     1.007825032230
         H           -1.151476868614    -1.521973022267    -1.021971975100     1.007825032230
         H           -2.066076868614    -1.760635022267     0.469844024900     1.007825032230
         H           -2.903619868614    -1.641074022267    -1.084050975100     1.007825032230

  Charge       = 0
  Multiplicity = 1
  Basis Set: JUN-CC-PVTZ
    Blend: JUN-CC-PVTZ
  Basis Set: (JUN-CC-PVTZ AUX)
    Blend: JUN-CC-PVTZ-JKFIT

    Orbital Energies [Eh]
    ---------------------

    Doubly Occupied:

       1A    -11.234417     2A    -11.220891     3A    -11.217582
       4A     -1.064806     5A     -0.932947     6A     -0.758041
       7A     -0.639715     8A     -0.582776     9A     -0.568920
      10A     -0.522988    11A     -0.492951    12A     -0.357986

  @DF-RHF Final Energy:  -117.11692688040372

   => Energetics <=

    Nuclear Repulsion Energy =             70.8571678712940809
    One-Electron Energy =                -296.7601476836121606
    Two-Electron Energy =                 108.7860529319143552
    Total Energy =                       -117.1169268804037245

  Dipole Moment: [D]
     X:     0.0237      Y:    -0.3193      Z:    -0.2765     Total:     0.4231

    SAPT Results
  --------------------------------------------------------------------------------------------------------
    Electrostatics                 -3.12656973 [mEh]      -1.96195212 [kcal/mol]      -8.20880769 [kJ/mol]
      Elst10,r                     -3.12656973 [mEh]      -1.96195212 [kcal/mol]      -8.20880769 [kJ/mol]

    Exchange                        6.98967383 [mEh]       4.38608654 [kcal/mol]      18.35138610 [kJ/mol]
      Exch10                        6.98967383 [mEh]       4.38608654 [kcal/mol]      18.35138610 [kJ/mol]
      Exch10(S^2)                   6.96455615 [mEh]       4.37032496 [kcal/mol]      18.28543965 [kJ/mol]

    Induction                      -0.79919516 [mEh]      -0.50150254 [kcal/mol]      -2.09828662 [kJ/mol]
      Ind20,r                      -2.00965864 [mEh]      -1.26107983 [kcal/mol]      -5.27635802 [kJ/mol]
      Exch-Ind20,r                  1.80240893 [mEh]       1.13102868 [kcal/mol]       4.73222398 [kJ/mol]
      delta HF,r (2)               -0.59194546 [mEh]      -0.37145138 [kcal/mol]      -1.55415258 [kJ/mol]

    Dispersion                     -7.45609547 [mEh]      -4.67877054 [kcal/mol]     -19.57597596 [kJ/mol]
      Disp20                       -8.34903741 [mEh]      -5.23910007 [kcal/mol]     -21.92039470 [kJ/mol]
      Exch-Disp20                   0.89294194 [mEh]       0.56032953 [kcal/mol]       2.34441874 [kJ/mol]
      Disp20 (SS)                  -4.17451871 [mEh]      -2.61955004 [kcal/mol]     -10.96019735 [kJ/mol]
      Disp20 (OS)                  -4.17451871 [mEh]      -2.61955004 [kcal/mol]     -10.96019735 [kJ/mol]
      Exch-Disp20 (SS)              0.57732333 [mEh]       0.36227586 [kcal/mol]       1.51576220 [kJ/mol]
      Exch-Disp20 (OS)              0.31561861 [mEh]       0.19805367 [kcal/mol]       0.82865654 [kJ/mol]

  Total HF                          3.06390893 [mEh]       1.92263188 [kcal/mol]       8.04429180 [kJ/mol]
  Total SAPT0                      -4.39218654 [mEh]      -2.75613866 [kcal/mol]     -11.53168416 [kJ/mol]

  Special recipe for scaled SAPT0 (see Manual):
    Electrostatics sSAPT0          -3.12656973 [mEh]      -1.96195212 [kcal/mol]      -8.20880769 [kJ/mol]
    Exchange sSAPT0                 6.98967383 [mEh]       4.38608654 [kcal/mol]      18.35138610 [kJ/mol]
    Induction sSAPT0               -0.77962358 [mEh]      -0.48922118 [kcal/mol]      -2.04690143 [kJ/mol]
    Dispersion sSAPT0              -7.44639940 [mEh]      -4.67268617 [kcal/mol]     -19.55051892 [kJ/mol]
  Total sSAPT0                     -4.36291888 [mEh]      -2.73777293 [kcal/mol]     -11.45484194 [kJ/mol]
  --------------------------------------------------------------------------------------------------------

*** Psi4 exiting successfully. Buy a developer a beer!
