                               Psi4 1.3.2 release

  ==> Input File <==

--------------------------------------------------------------------------
# Any line starting with the # character is a comment line
#! Sample  computation

memory 22 gb

molecule Dimer {

0 1
 H    -1.89438400   -0.81102100   -1.39277400
 C    -2.13701800    0.75725300    0.14388800
 C    -1.62349700   -0.55422100   -0.35326300
 O    -0.93786700   -1.32096400    0.29875300
 H    -1.89634000    0.89257400    1.19424100
 H    -1.67403700    1.55268700   -0.44275600
 H    -3.21483600    0.81146400   -0.01436900

 --
0 1
 H    1.52480000    0.59226100    1.47867800
 C    2.19350400   -0.72484000   -0.16255500
 C    1.52077700    0.49460300    0.37873600
 O    0.98352600    1.34827500   -0.30329900
 H    2.18559600   -0.71829300   -1.24874900
 H    3.21735600   -0.77204300    0.21101400
 H    1.66397600   -1.60288900    0.21024600

units angstrom

no_reorient
symmetry c1
}

set globals{
  basis jun-cc-pVTZ
  scf_type DF
  freeze_core True
}

energy('sapt0')

--------------------------------------------------------------------------

  //              Dimer HF             //
    Molecular point group: c1
  Charge       = 0
  Multiplicity = 1
  Basis Set: JUN-CC-PVTZ
    Blend: JUN-CC-PVTZ
  Basis Set: (JUN-CC-PVTZ AUX)
    Blend: JUN-CC-PVTZ-JKFIT
  @DF-RHF Final Energy:  -305.95489466010986
    Total Energy =                       -305.9548946601098578
  //            Monomer A HF           //
    Molecular point group: c1
  Multiplicity = 1
  Basis Set: JUN-CC-PVTZ
    Blend: JUN-CC-PVTZ
  Basis Set: (JUN-CC-PVTZ AUX)
    Blend: JUN-CC-PVTZ-JKFIT
  @DF-RHF Final Energy:  -152.97556420560727
    Total Energy =                       -152.9755642056072702
  //            Monomer B HF           //
    Molecular point group: c1

    Geometry (in Angstrom), charge = 0, multiplicity = 1:

       Center              X                  Y                   Z               Mass
    ------------   -----------------  -----------------  -----------------  -----------------
      Gh(H)          -1.895371448380    -0.811642047054    -1.392824596538     1.007825032230
      Gh(C)          -2.138005448380     0.756631952946     0.143837403462    12.000000000000
      Gh(C)          -1.624484448380    -0.554842047054    -0.353313596538    12.000000000000
      Gh(O)          -0.938854448380    -1.321585047054     0.298702403462    15.994914619570
      Gh(H)          -1.897327448380     0.891952952946     1.194190403462     1.007825032230
      Gh(H)          -1.675024448380     1.552065952946    -0.442806596538     1.007825032230
      Gh(H)          -3.215823448380     0.810842952946    -0.014419596538     1.007825032230
         H            1.523812551620     0.591639952946     1.478627403462     1.007825032230
         C            2.192516551620    -0.725461047054    -0.162605596538    12.000000000000
         C            1.519789551620     0.493981952946     0.378685403462    12.000000000000
         O            0.982538551620     1.347653952946    -0.303349596538    15.994914619570
         H            2.184608551620    -0.718914047054    -1.248799596538     1.007825032230
         H            3.216368551620    -0.772664047054     0.210963403462     1.007825032230
         H            1.662988551620    -1.603510047054     0.210195403462     1.007825032230

  Charge       = 0
  Multiplicity = 1
  Basis Set: JUN-CC-PVTZ
    Blend: JUN-CC-PVTZ
  Basis Set: (JUN-CC-PVTZ AUX)
    Blend: JUN-CC-PVTZ-JKFIT

    Orbital Energies [Eh]
    ---------------------

    Doubly Occupied:

       1A    -20.560068     2A    -11.337426     3A    -11.242788
       4A     -1.388866     5A     -1.026404     6A     -0.803831
       7A     -0.674644     8A     -0.623860     9A     -0.608315
      10A     -0.562875    11A     -0.502231    12A     -0.428371

  @DF-RHF Final Energy:  -152.97561576283337

   => Energetics <=

    Nuclear Repulsion Energy =             69.6872771770905359
    One-Electron Energy =                -345.8064274199991814
    Two-Electron Energy =                 123.1435344800752603
    Total Energy =                       -152.9756157628333710

  Dipole Moment: [D]
     X:     1.5587      Y:    -2.5531      Z:     1.4503     Total:     3.3244

    SAPT Results
  --------------------------------------------------------------------------------------------------------
    Electrostatics                 -9.85800160 [mEh]      -6.18598940 [kcal/mol]     -25.88217965 [kJ/mol]
      Elst10,r                     -9.85800160 [mEh]      -6.18598940 [kcal/mol]     -25.88217965 [kJ/mol]

    Exchange                        8.18574708 [mEh]       5.13663384 [kcal/mol]      21.49167600 [kJ/mol]
      Exch10                        8.18574708 [mEh]       5.13663384 [kcal/mol]      21.49167600 [kJ/mol]
      Exch10(S^2)                   8.16039680 [mEh]       5.12072630 [kcal/mol]      21.42511885 [kJ/mol]

    Induction                      -2.04243715 [mEh]      -1.28164866 [kcal/mol]      -5.36241799 [kJ/mol]
      Ind20,r                      -3.68401790 [mEh]      -2.31175613 [kcal/mol]      -9.67238766 [kJ/mol]
      Exch-Ind20,r                  2.28514164 [mEh]       1.43394803 [kcal/mol]       5.99963855 [kJ/mol]
      delta HF,r (2)               -0.64356089 [mEh]      -0.40384055 [kcal/mol]      -1.68966888 [kJ/mol]

    Dispersion                     -6.52218666 [mEh]      -4.09273392 [kcal/mol]     -17.12399872 [kJ/mol]
      Disp20                       -7.36242916 [mEh]      -4.61999405 [kcal/mol]     -19.33005509 [kJ/mol]
      Exch-Disp20                   0.84024250 [mEh]       0.52726013 [kcal/mol]       2.20605637 [kJ/mol]
      Disp20 (SS)                  -3.68121458 [mEh]      -2.30999702 [kcal/mol]      -9.66502755 [kJ/mol]
      Disp20 (OS)                  -3.68121458 [mEh]      -2.30999702 [kcal/mol]      -9.66502755 [kJ/mol]
      Exch-Disp20 (SS)              0.53311031 [mEh]       0.33453177 [kcal/mol]       1.39968091 [kJ/mol]
      Exch-Disp20 (OS)              0.30713219 [mEh]       0.19272836 [kcal/mol]       0.80637545 [kJ/mol]

  Total HF                         -3.71469167 [mEh]      -2.33100421 [kcal/mol]      -9.75292163 [kJ/mol]
  Total SAPT0                     -10.23687833 [mEh]      -6.42373814 [kcal/mol]     -26.87692036 [kJ/mol]

  Special recipe for scaled SAPT0 (see Manual):
    Electrostatics sSAPT0          -9.85800160 [mEh]      -6.18598940 [kcal/mol]     -25.88217965 [kJ/mol]
    Exchange sSAPT0                 8.18574708 [mEh]       5.13663384 [kcal/mol]      21.49167600 [kJ/mol]
    Induction sSAPT0               -2.02107454 [mEh]      -1.26824342 [kcal/mol]      -5.30633046 [kJ/mol]
    Dispersion sSAPT0              -6.51433167 [mEh]      -4.08780484 [kcal/mol]     -17.10337544 [kJ/mol]
  Total sSAPT0                    -10.20766073 [mEh]      -6.40540381 [kcal/mol]     -26.80020955 [kJ/mol]
  --------------------------------------------------------------------------------------------------------

*** Psi4 exiting successfully. Buy a developer a beer!
