                               Psi4 1.3.2 release

  ==> Input File <==

--------------------------------------------------------------------------
# Any line starting with the # character is a comment line
#! Sample  computation

memory 22 gb

molecule Dimer {

0 1
 H    0.31003500   -2.08999700    1.11835100
 C    2.06130700   -0.78872300    0.66261200
 C    0.78583400   -1.50353700    0.29511400
 O    0.25742200   -1.46801800   -0.81349600
 H    2.73744800   -1.53807100    1.11819800
 C    2.73739600   -0.05505400   -0.49411500
 H    2.97526900   -0.77628000   -1.29362700
 H    2.02442700    0.66512600   -0.92600700
 H    1.79680600   -0.08785600    1.47809000
 C    4.00666900    0.67293400   -0.03725700
 H    3.77138100    1.41973300    0.73862100
 H    4.73992800   -0.03443100    0.38453000
 H    4.48950900    1.19742100   -0.87648700

 --
0 1
 H    -0.31010100    2.09420600   -1.11292400
 C    -2.06054900    0.79012300   -0.66208900
 C    -0.78605700    1.50511100   -0.29166100
 O    -0.25845300    1.46708100    0.81726400
 H    -1.79453100    0.09098200   -1.47857400
 C    -2.73760900    0.05368700    0.49230900
 H    -2.02489000   -0.66728400    0.92325100
 H    -2.97656500    0.77307600    1.29315200
 H    -2.73666700    1.53980900   -1.11715400
 C    -4.00617000   -0.67364000    0.03241400
 H    -4.73918300    0.03446100   -0.38856700
 H    -3.76977900   -1.41861500   -0.74488000
 H    -4.48976200   -1.20018400    0.86992100

units angstrom

no_reorient
symmetry c1
}

set globals{
  basis jun-cc-pVTZ
  scf_type DF
  freeze_core True
}

energy('sapt0')

--------------------------------------------------------------------------

  //              Dimer HF             //
    Molecular point group: c1
  Charge       = 0
  Multiplicity = 1
  Basis Set: JUN-CC-PVTZ
    Blend: JUN-CC-PVTZ
  Basis Set: (JUN-CC-PVTZ AUX)
    Blend: JUN-CC-PVTZ-JKFIT
  @DF-RHF Final Energy:  -462.14013603770417
    Total Energy =                       -462.1401360377042238
  //            Monomer A HF           //
    Molecular point group: c1
  Multiplicity = 1
  Basis Set: JUN-CC-PVTZ
    Blend: JUN-CC-PVTZ
  Basis Set: (JUN-CC-PVTZ AUX)
    Blend: JUN-CC-PVTZ-JKFIT
  @DF-RHF Final Energy:  -231.06878747064840
    Total Energy =                       -231.0687874706484024
  //            Monomer B HF           //
    Molecular point group: c1

    Geometry (in Angstrom), charge = 0, multiplicity = 1:

       Center              X                  Y                   Z               Mass
    ------------   -----------------  -----------------  -----------------  -----------------
      Gh(H)           0.310057813295    -2.089982686200     1.118254018732     1.007825032230
      Gh(C)           2.061329813295    -0.788708686200     0.662515018732    12.000000000000
      Gh(C)           0.785856813295    -1.503522686200     0.295017018732    12.000000000000
      Gh(O)           0.257444813295    -1.468003686200    -0.813592981268    15.994914619570
      Gh(H)           2.737470813295    -1.538056686200     1.118101018732     1.007825032230
      Gh(C)           2.737418813295    -0.055039686200    -0.494211981268    12.000000000000
      Gh(H)           2.975291813295    -0.776265686200    -1.293723981268     1.007825032230
      Gh(H)           2.024449813295     0.665140313800    -0.926103981268     1.007825032230
      Gh(H)           1.796828813295    -0.087841686200     1.477993018732     1.007825032230
      Gh(C)           4.006691813295     0.672948313800    -0.037353981268    12.000000000000
      Gh(H)           3.771403813295     1.419747313800     0.738524018732     1.007825032230
      Gh(H)           4.739950813295    -0.034416686200     0.384433018732     1.007825032230
      Gh(H)           4.489531813295     1.197435313800    -0.876583981268     1.007825032230
         H           -0.310078186705     2.094220313800    -1.113020981268     1.007825032230
         C           -2.060526186705     0.790137313800    -0.662185981268    12.000000000000
         C           -0.786034186705     1.505125313800    -0.291757981268    12.000000000000
         O           -0.258430186705     1.467095313800     0.817167018732    15.994914619570
         H           -1.794508186705     0.090996313800    -1.478670981268     1.007825032230
         C           -2.737586186705     0.053701313800     0.492212018732    12.000000000000
         H           -2.024867186705    -0.667269686200     0.923154018732     1.007825032230
         H           -2.976542186705     0.773090313800     1.293055018732     1.007825032230
         H           -2.736644186705     1.539823313800    -1.117250981268     1.007825032230
         C           -4.006147186705    -0.673625686200     0.032317018732    12.000000000000
         H           -4.739160186705     0.034475313800    -0.388663981268     1.007825032230
         H           -3.769756186705    -1.418600686200    -0.744976981268     1.007825032230
         H           -4.489739186705    -1.200169686200     0.869824018732     1.007825032230

  Charge       = 0
  Multiplicity = 1
  Basis Set: JUN-CC-PVTZ
    Blend: JUN-CC-PVTZ
  Basis Set: (JUN-CC-PVTZ AUX)
    Blend: JUN-CC-PVTZ-JKFIT

    Orbital Energies [Eh]
    ---------------------

    Doubly Occupied:

       1A    -20.558220     2A    -11.337180     3A    -11.248276
       4A    -11.231690     5A    -11.224517     6A     -1.380008
       7A     -1.079560     8A     -0.975048     9A     -0.845986
      10A     -0.768209    11A     -0.669128    12A     -0.647584
      13A     -0.629524    14A     -0.567474    15A     -0.565388
      16A     -0.511424    17A     -0.499233    18A     -0.490310
      19A     -0.479461    20A     -0.421417

  @DF-RHF Final Energy:  -231.06878525195012

   => Energetics <=

    Nuclear Repulsion Energy =            171.0501445530979652
    One-Electron Energy =                -651.9785744683731536
    Two-Electron Energy =                 249.8596446633250423
    Total Energy =                       -231.0687852519501178

  Dipole Moment: [D]
     X:    -1.8236      Y:    -0.3173      Z:    -2.5603     Total:     3.1594

    SAPT Results
  --------------------------------------------------------------------------------------------------------
    Electrostatics                 -9.45150707 [mEh]      -5.93091023 [kcal/mol]     -24.81492840 [kJ/mol]
      Elst10,r                     -9.45150707 [mEh]      -5.93091023 [kcal/mol]     -24.81492840 [kJ/mol]

    Exchange                        9.12987997 [mEh]       5.72908618 [kcal/mol]      23.97049656 [kJ/mol]
      Exch10                        9.12987997 [mEh]       5.72908618 [kcal/mol]      23.97049656 [kJ/mol]
      Exch10(S^2)                   9.10485348 [mEh]       5.71338182 [kcal/mol]      23.90478953 [kJ/mol]

    Induction                      -2.24168800 [mEh]      -1.40668046 [kcal/mol]      -5.88555104 [kJ/mol]
      Ind20,r                      -3.91792230 [mEh]      -2.45853336 [kcal/mol]     -10.28650359 [kJ/mol]
      Exch-Ind20,r                  2.42218195 [mEh]       1.51994212 [kcal/mol]       6.35943783 [kJ/mol]
      delta HF,r (2)               -0.74594765 [mEh]      -0.46808922 [kcal/mol]      -1.95848529 [kJ/mol]

    Dispersion                     -9.32423353 [mEh]      -5.85104488 [kcal/mol]     -24.48077176 [kJ/mol]
      Disp20                      -10.37022292 [mEh]      -6.50741313 [kcal/mol]     -27.22701652 [kJ/mol]
      Exch-Disp20                   1.04598939 [mEh]       0.65636825 [kcal/mol]       2.74624476 [kJ/mol]
      Disp20 (SS)                  -5.18511146 [mEh]      -3.25370656 [kcal/mol]     -13.61350826 [kJ/mol]
      Disp20 (OS)                  -5.18511146 [mEh]      -3.25370656 [kcal/mol]     -13.61350826 [kJ/mol]
      Exch-Disp20 (SS)              0.66524802 [mEh]       0.41744944 [kcal/mol]       1.74660844 [kJ/mol]
      Exch-Disp20 (OS)              0.38074136 [mEh]       0.23891881 [kcal/mol]       0.99963632 [kJ/mol]

  Total HF                         -2.56331511 [mEh]      -1.60850451 [kcal/mol]      -6.72998288 [kJ/mol]
  Total SAPT0                     -11.88754864 [mEh]      -7.45954939 [kcal/mol]     -31.21075464 [kJ/mol]

  Special recipe for scaled SAPT0 (see Manual):
    Electrostatics sSAPT0          -9.45150707 [mEh]      -5.93091023 [kcal/mol]     -24.81492840 [kJ/mol]
    Exchange sSAPT0                 9.12987997 [mEh]       5.72908618 [kcal/mol]      23.97049656 [kJ/mol]
    Induction sSAPT0               -2.22165952 [mEh]      -1.39411240 [kcal/mol]      -5.83296626 [kJ/mol]
    Dispersion sSAPT0              -9.31558448 [mEh]      -5.84561751 [kcal/mol]     -24.45806367 [kJ/mol]
  Total sSAPT0                    -11.85887109 [mEh]      -7.44155396 [kcal/mol]     -31.13546177 [kJ/mol]
  --------------------------------------------------------------------------------------------------------

*** Psi4 exiting successfully. Buy a developer a beer!
