                               Psi4 1.3.2 release

  ==> Input File <==

--------------------------------------------------------------------------
# Any line starting with the # character is a comment line
#! Sample  computation

memory 22 gb

molecule Dimer {

0 1
 H   -0.87481700    1.86393900    1.08859200
 C   -2.18925900    0.13856800    0.67056600
 C   -1.17392600    1.16878000    0.28251300
 O   -0.67718300    1.27132600   -0.82465800
 H   -3.03868900    0.67522000    1.10507900
 C   -2.61290400   -0.76598200   -0.47136900
 H   -3.02411300   -0.18533200   -1.29529500
 H   -1.76035300   -1.32468600   -0.85176600
 H   -3.36603600   -1.47672000   -0.13658000
 H   -1.74417400   -0.43173400    1.49198200

 --
0 1
 H    0.87439800   -1.86655600   -1.08493700
 C    2.18854400   -0.13988400   -0.67142300
 C    1.17372400   -1.16952300   -0.28054700
 O    0.67753300   -1.26976100    0.82708400
 H    3.03747400   -0.67713200   -1.10616200
 C    2.61347300    0.76659700    0.46850300
 H    3.36670300    1.47632300    0.13179200
 H    1.76148800    1.32646200    0.84842800
 H    3.02504000    0.18727800    1.29318800
 H    1.74236400    0.42908500   -1.49319000

units angstrom

no_reorient
symmetry c1
}

set globals{
  basis jun-cc-pVTZ
  scf_type DF
  freeze_core True
}

energy('sapt0')

--------------------------------------------------------------------------

  //              Dimer HF             //
    Molecular point group: c1
  Charge       = 0
  Multiplicity = 1
  Basis Set: JUN-CC-PVTZ
    Blend: JUN-CC-PVTZ
  Basis Set: (JUN-CC-PVTZ AUX)
    Blend: JUN-CC-PVTZ-JKFIT
  @DF-RHF Final Energy:  -384.05049476949080
    Total Energy =                       -384.0504947694907969
  //            Monomer A HF           //
    Molecular point group: c1
  Multiplicity = 1
  Basis Set: JUN-CC-PVTZ
    Blend: JUN-CC-PVTZ
  Basis Set: (JUN-CC-PVTZ AUX)
    Blend: JUN-CC-PVTZ-JKFIT
  @DF-RHF Final Energy:  -192.02420395843049
    Total Energy =                       -192.0242039584304905
  //            Monomer B HF           //
    Molecular point group: c1

    Geometry (in Angstrom), charge = 0, multiplicity = 1:

       Center              X                  Y                   Z               Mass
    ------------   -----------------  -----------------  -----------------  -----------------
      Gh(H)          -0.874823044131     1.863906085038     1.088516354062     1.007825032230
      Gh(C)          -2.189265044131     0.138535085038     0.670490354062    12.000000000000
      Gh(C)          -1.173932044131     1.168747085038     0.282437354062    12.000000000000
      Gh(O)          -0.677189044131     1.271293085038    -0.824733645938    15.994914619570
      Gh(H)          -3.038695044131     0.675187085038     1.105003354062     1.007825032230
      Gh(C)          -2.612910044131    -0.766014914962    -0.471444645938    12.000000000000
      Gh(H)          -3.024119044131    -0.185364914962    -1.295370645938     1.007825032230
      Gh(H)          -1.760359044131    -1.324718914962    -0.851841645938     1.007825032230
      Gh(H)          -3.366042044131    -1.476752914962    -0.136655645938     1.007825032230
      Gh(H)          -1.744180044131    -0.431766914962     1.491906354062     1.007825032230
         H            0.874391955869    -1.866588914962    -1.085012645938     1.007825032230
         C            2.188537955869    -0.139916914962    -0.671498645938    12.000000000000
         C            1.173717955869    -1.169555914962    -0.280622645938    12.000000000000
         O            0.677526955869    -1.269793914962     0.827008354062    15.994914619570
         H            3.037467955869    -0.677164914962    -1.106237645938     1.007825032230
         C            2.613466955869     0.766564085038     0.468427354062    12.000000000000
         H            3.366696955869     1.476290085038     0.131716354062     1.007825032230
         H            1.761481955869     1.326429085038     0.848352354062     1.007825032230
         H            3.025033955869     0.187245085038     1.293112354062     1.007825032230
         H            1.742357955869     0.429052085038    -1.493265645938     1.007825032230

  Charge       = 0
  Multiplicity = 1
  Basis Set: JUN-CC-PVTZ
    Blend: JUN-CC-PVTZ
  Basis Set: (JUN-CC-PVTZ AUX)
    Blend: JUN-CC-PVTZ-JKFIT

    Orbital Energies [Eh]
    ---------------------

    Doubly Occupied:

       1A    -20.557714     2A    -11.332870     3A    -11.245490
       4A    -11.221358     5A     -1.387335     6A     -1.065604
       7A     -0.913902     8A     -0.773898     9A     -0.680976
      10A     -0.637573    11A     -0.627123    12A     -0.542322
      13A     -0.528002    14A     -0.520637    15A     -0.491235
      16A     -0.423315

  @DF-RHF Final Energy:  -192.02420263886918

   => Energetics <=

    Nuclear Repulsion Energy =            118.6714061784106917
    One-Electron Energy =                -495.4925072399176429
    Two-Electron Energy =                 184.7968984226377813
    Total Energy =                       -192.0242026388691841

  Dipole Moment: [D]
     X:     1.5939      Y:     0.7265      Z:    -2.6615     Total:     3.1862

    SAPT Results
  --------------------------------------------------------------------------------------------------------
    Electrostatics                -10.09530286 [mEh]      -6.33489819 [kcal/mol]     -26.50521401 [kJ/mol]
      Elst10,r                    -10.09530286 [mEh]      -6.33489819 [kcal/mol]     -26.50521401 [kJ/mol]

    Exchange                       10.34437314 [mEh]       6.49119214 [kcal/mol]      27.15914793 [kJ/mol]
      Exch10                       10.34437314 [mEh]       6.49119214 [kcal/mol]      27.15914793 [kJ/mol]
      Exch10(S^2)                  10.31057623 [mEh]       6.46998427 [kcal/mol]      27.07041417 [kJ/mol]

    Induction                      -2.33724247 [mEh]      -1.46664179 [kcal/mol]      -6.13642925 [kJ/mol]
      Ind20,r                      -4.40774653 [mEh]      -2.76590271 [kcal/mol]     -11.57253692 [kJ/mol]
      Exch-Ind20,r                  2.86856153 [mEh]       1.80004954 [kcal/mol]       7.53140727 [kJ/mol]
      delta HF,r (2)               -0.79805747 [mEh]      -0.50078862 [kcal/mol]      -2.09529960 [kJ/mol]

    Dispersion                     -9.31510408 [mEh]      -5.84531606 [kcal/mol]     -24.45680239 [kJ/mol]
      Disp20                      -10.44910797 [mEh]      -6.55691424 [kcal/mol]     -27.43412919 [kJ/mol]
      Exch-Disp20                   1.13400389 [mEh]       0.71159818 [kcal/mol]       2.97732680 [kJ/mol]
      Disp20 (SS)                  -5.22455398 [mEh]      -3.27845712 [kcal/mol]     -13.71706459 [kJ/mol]
      Disp20 (OS)                  -5.22455398 [mEh]      -3.27845712 [kcal/mol]     -13.71706459 [kJ/mol]
      Exch-Disp20 (SS)              0.71932911 [mEh]       0.45138583 [kcal/mol]       1.88859833 [kJ/mol]
      Exch-Disp20 (OS)              0.41467477 [mEh]       0.26021235 [kcal/mol]       1.08872847 [kJ/mol]

  Total HF                         -2.08817219 [mEh]      -1.31034783 [kcal/mol]      -5.48249533 [kJ/mol]
  Total SAPT0                     -11.40327627 [mEh]      -7.15566389 [kcal/mol]     -29.93929772 [kJ/mol]

  Special recipe for scaled SAPT0 (see Manual):
    Electrostatics sSAPT0         -10.09530286 [mEh]      -6.33489819 [kcal/mol]     -26.50521401 [kJ/mol]
    Exchange sSAPT0                10.34437314 [mEh]       6.49119214 [kcal/mol]      27.15914793 [kJ/mol]
    Induction sSAPT0               -2.30894144 [mEh]      -1.44888263 [kcal/mol]      -6.06212491 [kJ/mol]
    Dispersion sSAPT0              -9.30391608 [mEh]      -5.83829548 [kcal/mol]     -24.42742829 [kJ/mol]
  Total sSAPT0                    -11.36378724 [mEh]      -7.13088415 [kcal/mol]     -29.83561929 [kJ/mol]
  --------------------------------------------------------------------------------------------------------

*** Psi4 exiting successfully. Buy a developer a beer!
