                               Psi4 1.3.2 release

  ==> Input File <==

--------------------------------------------------------------------------
# Any line starting with the # character is a comment line
#! Sample  computation

memory 22 gb

molecule Dimer {

0 1
 C    1.89974000    1.91181200   -0.35129900
 H    1.11651600    1.94221100   -1.11022000
 H    2.85969400    2.00149100   -0.86170400
 H    1.77731400    2.78503600    0.28928200
 C    1.83181700    0.61550300    0.44574900
 H    2.60818500    0.61356800    1.21594400
 H    0.87547200    0.55450000    0.97233700
 C    1.99625900   -0.62155200   -0.42822100
 H    2.95550000   -0.56634500   -0.95040500
 H    1.22410600   -0.61829300   -1.20303300
 C    1.91796200   -1.91470000    0.37351800
 H    0.95819000   -1.99439200    0.88612300
 H    2.03048800   -2.79188100   -0.26345600
 H    2.70253300   -1.94695000    1.13073400

 --
0 1
 C   -1.92518200   -1.91027500   -0.37346500
 H   -0.96530900   -1.99372900   -0.88528500
 H   -2.70925700   -1.93948400   -1.13131800
 H   -2.04165100   -2.78698600    0.26344600
 C   -1.99907200   -0.61680200    0.42816500
 H   -2.95851200   -0.55779000    0.94956300
 H   -1.22752200   -0.61652900    1.20359800
 C   -1.82896000    0.61955700   -0.44569800
 H   -2.60454700    0.62067100   -1.21667900
 H   -0.87232200    0.55472600   -0.97128400
 C   -1.89257800    1.91615100    0.35124400
 H   -1.11017200    1.94341000    1.11112300
 H   -1.76584500    2.78886200   -0.28920200
 H   -2.85278100    2.00973500    0.86048200

units angstrom

no_reorient
symmetry c1
}

set globals{
  basis jun-cc-pVTZ
  scf_type DF
  freeze_core True
}

energy('sapt0')

--------------------------------------------------------------------------

  //              Dimer HF             //
    Molecular point group: c1
  Charge       = 0
  Multiplicity = 1
  Basis Set: JUN-CC-PVTZ
    Blend: JUN-CC-PVTZ
  Basis Set: (JUN-CC-PVTZ AUX)
    Blend: JUN-CC-PVTZ-JKFIT
  @DF-RHF Final Energy:  -314.70769110815957
    Total Energy =                       -314.7076911081595654
  //            Monomer A HF           //
    Molecular point group: c1
  Multiplicity = 1
  Basis Set: JUN-CC-PVTZ
    Blend: JUN-CC-PVTZ
  Basis Set: (JUN-CC-PVTZ AUX)
    Blend: JUN-CC-PVTZ-JKFIT
  @DF-RHF Final Energy:  -157.35595025317173
    Total Energy =                       -157.3559502531717271
  //            Monomer B HF           //
    Molecular point group: c1

    Geometry (in Angstrom), charge = 0, multiplicity = 1:

       Center              X                  Y                   Z               Mass
    ------------   -----------------  -----------------  -----------------  -----------------
      Gh(C)           1.899740752209     1.911827725959    -0.351298675954    12.000000000000
      Gh(H)           1.116516752209     1.942226725959    -1.110219675954     1.007825032230
      Gh(H)           2.859694752209     2.001506725959    -0.861703675954     1.007825032230
      Gh(H)           1.777314752209     2.785051725959     0.289282324046     1.007825032230
      Gh(C)           1.831817752209     0.615518725959     0.445749324046    12.000000000000
      Gh(H)           2.608185752209     0.613583725959     1.215944324046     1.007825032230
      Gh(H)           0.875472752209     0.554515725959     0.972337324046     1.007825032230
      Gh(C)           1.996259752209    -0.621536274041    -0.428220675954    12.000000000000
      Gh(H)           2.955500752209    -0.566329274041    -0.950404675954     1.007825032230
      Gh(H)           1.224106752209    -0.618277274041    -1.203032675954     1.007825032230
      Gh(C)           1.917962752209    -1.914684274041     0.373518324046    12.000000000000
      Gh(H)           0.958190752209    -1.994376274041     0.886123324046     1.007825032230
      Gh(H)           2.030488752209    -2.791865274041    -0.263455675954     1.007825032230
      Gh(H)           2.702533752209    -1.946934274041     1.130734324046     1.007825032230
         C           -1.925181247791    -1.910259274041    -0.373464675954    12.000000000000
         H           -0.965308247791    -1.993713274041    -0.885284675954     1.007825032230
         H           -2.709256247791    -1.939468274041    -1.131317675954     1.007825032230
         H           -2.041650247791    -2.786970274041     0.263446324046     1.007825032230
         C           -1.999071247791    -0.616786274041     0.428165324046    12.000000000000
         H           -2.958511247791    -0.557774274041     0.949563324046     1.007825032230
         H           -1.227521247791    -0.616513274041     1.203598324046     1.007825032230
         C           -1.828959247791     0.619572725959    -0.445697675954    12.000000000000
         H           -2.604546247791     0.620686725959    -1.216678675954     1.007825032230
         H           -0.872321247791     0.554741725959    -0.971283675954     1.007825032230
         C           -1.892577247791     1.916166725959     0.351244324046    12.000000000000
         H           -1.110171247791     1.943425725959     1.111123324046     1.007825032230
         H           -1.765844247791     2.788877725959    -0.289201675954     1.007825032230
         H           -2.852780247791     2.009750725959     0.860482324046     1.007825032230

  Charge       = 0
  Multiplicity = 1
  Basis Set: JUN-CC-PVTZ
    Blend: JUN-CC-PVTZ
  Basis Set: (JUN-CC-PVTZ AUX)
    Blend: JUN-CC-PVTZ-JKFIT

    Orbital Energies [Eh]
    ---------------------

    Doubly Occupied:

       1A    -11.213425     2A    -11.212797     3A    -11.207586
       4A    -11.207573     5A     -1.071379     6A     -0.980347
       7A     -0.860230     8A     -0.787425     9A     -0.638988
      10A     -0.584207    11A     -0.575562    12A     -0.567024
      13A     -0.513998    14A     -0.494181    15A     -0.469325
      16A     -0.461510    17A     -0.455993

  @DF-RHF Final Energy:  -157.35595005613106

   => Energetics <=

    Nuclear Repulsion Energy =            131.0779293103545626
    One-Electron Energy =                -470.2646592394144704
    Two-Electron Energy =                 181.8307798729288152
    Total Energy =                       -157.3559500561310642

  Dipole Moment: [D]
     X:    -0.0010      Y:    -0.0001      Z:    -0.0002     Total:     0.0010

    SAPT Results
  --------------------------------------------------------------------------------------------------------
    Electrostatics                 -2.03714438 [mEh]      -1.27832740 [kcal/mol]      -5.34852185 [kJ/mol]
      Elst10,r                     -2.03714438 [mEh]      -1.27832740 [kcal/mol]      -5.34852185 [kJ/mol]

    Exchange                        6.86173698 [mEh]       4.30580496 [kcal/mol]      18.01548796 [kJ/mol]
      Exch10                        6.86173698 [mEh]       4.30580496 [kcal/mol]      18.01548796 [kJ/mol]
      Exch10(S^2)                   6.85121581 [mEh]       4.29920283 [kcal/mol]      17.98786463 [kJ/mol]

    Induction                      -0.61539145 [mEh]      -0.38616397 [kcal/mol]      -1.61571003 [kJ/mol]
      Ind20,r                      -1.05052123 [mEh]      -0.65921203 [kcal/mol]      -2.75814312 [kJ/mol]
      Exch-Ind20,r                  0.91190856 [mEh]       0.57223126 [kcal/mol]       2.39421559 [kJ/mol]
      delta HF,r (2)               -0.47677877 [mEh]      -0.29918320 [kcal/mol]      -1.25178250 [kJ/mol]

    Dispersion                     -8.86977724 [mEh]      -5.56586925 [kcal/mol]     -23.28759694 [kJ/mol]
      Disp20                       -9.63525984 [mEh]      -6.04621683 [kcal/mol]     -25.29737122 [kJ/mol]
      Exch-Disp20                   0.76548260 [mEh]       0.48034758 [kcal/mol]       2.00977428 [kJ/mol]
      Disp20 (SS)                  -4.81762992 [mEh]      -3.02310842 [kcal/mol]     -12.64868561 [kJ/mol]
      Disp20 (OS)                  -4.81762992 [mEh]      -3.02310842 [kcal/mol]     -12.64868561 [kJ/mol]
      Exch-Disp20 (SS)              0.50372948 [mEh]       0.31609502 [kcal/mol]       1.32254157 [kJ/mol]
      Exch-Disp20 (OS)              0.26175311 [mEh]       0.16425256 [kcal/mol]       0.68723271 [kJ/mol]

  Total HF                          4.20920114 [mEh]       2.64131359 [kcal/mol]      11.05125608 [kJ/mol]
  Total SAPT0                      -4.66057610 [mEh]      -2.92455566 [kcal/mol]     -12.23634086 [kJ/mol]

  Special recipe for scaled SAPT0 (see Manual):
    Electrostatics sSAPT0          -2.03714438 [mEh]      -1.27832740 [kcal/mol]      -5.34852185 [kJ/mol]
    Exchange sSAPT0                 6.86173698 [mEh]       4.30580496 [kcal/mol]      18.01548796 [kJ/mol]
    Induction sSAPT0               -0.61118384 [mEh]      -0.38352365 [kcal/mol]      -1.60466295 [kJ/mol]
    Dispersion sSAPT0              -8.86624525 [mEh]      -5.56365289 [kcal/mol]     -23.27832370 [kJ/mol]
  Total sSAPT0                     -4.65283649 [mEh]      -2.91969898 [kcal/mol]     -12.21602053 [kJ/mol]
  --------------------------------------------------------------------------------------------------------

*** Psi4 exiting successfully. Buy a developer a beer!
