                               Psi4 1.3.2 release

  ==> Input File <==

--------------------------------------------------------------------------
# Any line starting with the # character is a comment line
#! Sample  computation

memory 22 gb

molecule Dimer {
0 1
 C -0.493451   -1.074797    0.388028
 C -1.715541   -1.205281   -0.512160
 C -3.012679   -1.309157    0.280233
 C 0.806363   -0.907193   -0.387195
 C 2.034656   -0.831260    0.510962
 C 3.317489   -0.595376   -0.276359
 H -0.422768   -1.958798    1.030336
 H -0.626438   -0.217964    1.057165
 H -1.598318   -2.086688   -1.148260
 H -1.760580   -0.343079   -1.182427
 H -3.878098   -1.410525   -0.374224
 H -3.160469   -0.420913    0.896365
 H -2.991613   -2.173253    0.945634
 H 0.923455   -1.741398   -1.086677
 H 0.746913    0.000149   -0.997687
 H 2.115789   -1.758648    1.084152
 H 1.897681   -0.029555    1.241949
 H 4.189163   -0.553263    0.376250
 H 3.264085    0.345169   -0.826431
 H 3.478753   -1.394547   -1.000995
 --
0 1
 C  -1.072492    2.607483   -0.395710
 C   0.206009    2.868315    0.391895
 H  -0.851452    2.209701   -1.385920
 H  -1.647254    3.523535   -0.527988
 H  -1.710923    1.886600    0.114585
 H   0.840686    3.593472   -0.116330
 H   0.784633    1.953670    0.518193
 H  -0.015368    3.259923    1.384147

units angstrom

no_reorient
symmetry c1
}

set globals{
  basis jun-cc-pvtz
}

energy('sapt0')

--------------------------------------------------------------------------

  //              Dimer HF             //
    Molecular point group: c1
  Charge       = 0
  Multiplicity = 1
  Basis Set: JUN-CC-PVTZ
    Blend: JUN-CC-PVTZ
  Basis Set: (JUN-CC-PVTZ AUX)
    Blend: JUN-CC-PVTZ-JKFIT
  @DF-RHF Final Energy:  -314.70854774629487
    Total Energy =                       -314.7085477462948688
  //            Monomer A HF           //
    Molecular point group: c1
  Multiplicity = 1
  Basis Set: JUN-CC-PVTZ
    Blend: JUN-CC-PVTZ
  Basis Set: (JUN-CC-PVTZ AUX)
    Blend: JUN-CC-PVTZ-JKFIT
  @DF-RHF Final Energy:  -235.45142853391201
    Total Energy =                       -235.4514285339120079
  //            Monomer B HF           //
    Molecular point group: c1

    Geometry (in Angstrom), charge = 0, multiplicity = 1:

       Center              X                  Y                   Z               Mass
    ------------   -----------------  -----------------  -----------------  -----------------
      Gh(C)          -0.497056668831    -1.051874435850     0.388043673900    12.000000000000
      Gh(C)          -1.719146668831    -1.182358435850    -0.512144326100    12.000000000000
      Gh(C)          -3.016284668831    -1.286234435850     0.280248673900    12.000000000000
      Gh(C)           0.802757331169    -0.884270435850    -0.387179326100    12.000000000000
      Gh(C)           2.031050331169    -0.808337435850     0.510977673900    12.000000000000
      Gh(C)           3.313883331169    -0.572453435850    -0.276343326100    12.000000000000
      Gh(H)          -0.426373668831    -1.935875435850     1.030351673900     1.007825032230
      Gh(H)          -0.630043668831    -0.195041435850     1.057180673900     1.007825032230
      Gh(H)          -1.601923668831    -2.063765435850    -1.148244326100     1.007825032230
      Gh(H)          -1.764185668831    -0.320156435850    -1.182411326100     1.007825032230
      Gh(H)          -3.881703668831    -1.387602435850    -0.374208326100     1.007825032230
      Gh(H)          -3.164074668831    -0.397990435850     0.896380673900     1.007825032230
      Gh(H)          -2.995218668831    -2.150330435850     0.945649673900     1.007825032230
      Gh(H)           0.919849331169    -1.718475435850    -1.086661326100     1.007825032230
      Gh(H)           0.743307331169     0.023071564150    -0.997671326100     1.007825032230
      Gh(H)           2.112183331169    -1.735725435850     1.084167673900     1.007825032230
      Gh(H)           1.894075331169    -0.006632435850     1.241964673900     1.007825032230
      Gh(H)           4.185557331169    -0.530340435850     0.376265673900     1.007825032230
      Gh(H)           3.260479331169     0.368091564150    -0.826415326100     1.007825032230
      Gh(H)           3.475147331169    -1.371624435850    -1.000979326100     1.007825032230
         C           -1.076097668831     2.630405564150    -0.395694326100    12.000000000000
         C            0.202403331169     2.891237564150     0.391910673900    12.000000000000
         H           -0.855057668831     2.232623564150    -1.385904326100     1.007825032230
         H           -1.650859668831     3.546457564150    -0.527972326100     1.007825032230
         H           -1.714528668831     1.909522564150     0.114600673900     1.007825032230
         H            0.837080331169     3.616394564150    -0.116314326100     1.007825032230
         H            0.781027331169     1.976592564150     0.518208673900     1.007825032230
         H           -0.018973668831     3.282845564150     1.384162673900     1.007825032230

  Charge       = 0
  Multiplicity = 1
  Basis Set: JUN-CC-PVTZ
    Blend: JUN-CC-PVTZ
  Basis Set: (JUN-CC-PVTZ AUX)
    Blend: JUN-CC-PVTZ-JKFIT

    Orbital Energies [Eh]
    ---------------------

    Doubly Occupied:

       1A    -11.210569     2A    -11.209957     3A     -1.018434
       4A     -0.841613     5A     -0.597037     6A     -0.596953
       7A     -0.509898     8A     -0.486563     9A     -0.486509

  @DF-RHF Final Energy:   -79.26015236805675

   => Energetics <=

    Nuclear Repulsion Energy =             42.3366182972990117
    One-Electron Energy =                -189.2784773830610447
    Two-Electron Energy =                  67.6817067177052678
    Total Energy =                        -79.2601523680567510

  Dipole Moment: [D]
     X:     0.0005      Y:     0.0010      Z:    -0.0001     Total:     0.0011

    SAPT Results
  --------------------------------------------------------------------------------------------------------
    Electrostatics                 -1.55723028 [mEh]      -0.97717675 [kcal/mol]      -4.08850753 [kJ/mol]
      Elst10,r                     -1.55723028 [mEh]      -0.97717675 [kcal/mol]      -4.08850753 [kJ/mol]

    Exchange                        5.02083291 [mEh]       3.15062022 [kcal/mol]      13.18219499 [kJ/mol]
      Exch10                        5.02083291 [mEh]       3.15062022 [kcal/mol]      13.18219499 [kJ/mol]
      Exch10(S^2)                   5.01381383 [mEh]       3.14621568 [kcal/mol]      13.16376640 [kJ/mol]

    Induction                      -0.43044696 [mEh]      -0.27010954 [kcal/mol]      -1.13013833 [kJ/mol]
      Ind20,r                      -0.76768781 [mEh]      -0.48173138 [kcal/mol]      -2.01556407 [kJ/mol]
      Exch-Ind20,r                  0.67568865 [mEh]       0.42400103 [kcal/mol]       1.77402031 [kJ/mol]
      delta HF,r (2)               -0.33844780 [mEh]      -0.21237920 [kcal/mol]      -0.88859457 [kJ/mol]

    Dispersion                     -6.58242087 [mEh]      -4.13053146 [kcal/mol]     -17.28214361 [kJ/mol]
      Disp20                       -7.14518906 [mEh]      -4.48367383 [kcal/mol]     -18.75969130 [kJ/mol]
      Exch-Disp20                   0.56276820 [mEh]       0.35314237 [kcal/mol]       1.47754770 [kJ/mol]
      Disp20 (SS)                  -3.57259453 [mEh]      -2.24183691 [kcal/mol]      -9.37984565 [kJ/mol]
      Disp20 (OS)                  -3.57259453 [mEh]      -2.24183691 [kcal/mol]      -9.37984565 [kJ/mol]
      Exch-Disp20 (SS)              0.37021131 [mEh]       0.23231111 [kcal/mol]       0.97198967 [kJ/mol]
      Exch-Disp20 (OS)              0.19255688 [mEh]       0.12083127 [kcal/mol]       0.50555803 [kJ/mol]

  Total HF                          3.03315567 [mEh]       1.90333392 [kcal/mol]       7.96354912 [kJ/mol]
  Total SAPT0                      -3.54926519 [mEh]      -2.22719753 [kcal/mol]      -9.31859448 [kJ/mol]

  Special recipe for scaled SAPT0 (see Manual):
    Electrostatics sSAPT0          -1.55723028 [mEh]      -0.97717675 [kcal/mol]      -4.08850753 [kJ/mol]
    Exchange sSAPT0                 5.02083291 [mEh]       3.15062022 [kcal/mol]      13.18219499 [kJ/mol]
    Induction sSAPT0               -0.42760520 [mEh]      -0.26832631 [kcal/mol]      -1.12267729 [kJ/mol]
    Dispersion sSAPT0              -6.58005402 [mEh]      -4.12904624 [kcal/mol]     -17.27592945 [kJ/mol]
  Total sSAPT0                     -3.54405659 [mEh]      -2.22392908 [kcal/mol]      -9.30491928 [kJ/mol]
  --------------------------------------------------------------------------------------------------------

*** Psi4 exiting successfully. Buy a developer a beer!
