                               Psi4 1.3.2 release

  ==> Input File <==

--------------------------------------------------------------------------
# Any line starting with the # character is a comment line
#! Sample  computation

memory 22 gb

molecule Dimer {
0 1
 C 2.021491   -1.093909    0.040494
 C 1.471158    0.223588    0.572716
 C 1.193756    1.216441   -0.549089
 H 1.320020   -1.551954   -0.658475
 H 2.959297   -0.932381   -0.492828
 H 2.210004   -1.806504    0.843052
 H 2.181947    0.657827    1.278758
 H 0.552529    0.038867    1.133719
 H 0.809150    2.161707   -0.166278
 H 2.105130    1.428073   -1.110228
 H 0.460118    0.812704   -1.248625

 --
0 1
 C -2.115079   -0.735346   -0.475774
 C -2.408846    0.415011    0.479865
 H -1.146628   -1.187332   -0.263229
 H -2.101855   -0.394629   -1.510624
 H -2.869380   -1.517188   -0.394570
 H -1.659961    1.201234    0.391707
 H -2.413475    0.075488    1.515145
 H -3.381778    0.859378    0.273199

units angstrom

no_reorient
symmetry c1
}

set globals{
  basis jun-cc-pvtz
}

energy('sapt0')

--------------------------------------------------------------------------

  //              Dimer HF             //
    Molecular point group: c1
  Charge       = 0
  Multiplicity = 1
  Basis Set: JUN-CC-PVTZ
    Blend: JUN-CC-PVTZ
  Basis Set: (JUN-CC-PVTZ AUX)
    Blend: JUN-CC-PVTZ-JKFIT
  @DF-RHF Final Energy:  -197.56596702328903
    Total Energy =                       -197.5659670232890335
  //            Monomer A HF           //
    Molecular point group: c1
  Multiplicity = 1
  Basis Set: JUN-CC-PVTZ
    Blend: JUN-CC-PVTZ
  Basis Set: (JUN-CC-PVTZ AUX)
    Blend: JUN-CC-PVTZ-JKFIT
  @DF-RHF Final Energy:  -118.30807347557375
    Total Energy =                       -118.3080734755737495
  //            Monomer B HF           //
    Molecular point group: c1

    Geometry (in Angstrom), charge = 0, multiplicity = 1:

       Center              X                  Y                   Z               Mass
    ------------   -----------------  -----------------  -----------------  -----------------
      Gh(C)           2.008439382347    -1.095980249769     0.035014754858    12.000000000000
      Gh(C)           1.458106382347     0.221516750231     0.567236754858    12.000000000000
      Gh(C)           1.180704382347     1.214369750231    -0.554568245142    12.000000000000
      Gh(H)           1.306968382347    -1.554025249769    -0.663954245142     1.007825032230
      Gh(H)           2.946245382347    -0.934452249769    -0.498307245142     1.007825032230
      Gh(H)           2.196952382347    -1.808575249769     0.837572754858     1.007825032230
      Gh(H)           2.168895382347     0.655755750231     1.273278754858     1.007825032230
      Gh(H)           0.539477382347     0.036795750231     1.128239754858     1.007825032230
      Gh(H)           0.796098382347     2.159635750231    -0.171757245142     1.007825032230
      Gh(H)           2.092078382347     1.426001750231    -1.115707245142     1.007825032230
      Gh(H)           0.447066382347     0.810632750231    -1.254104245142     1.007825032230
         C           -2.128130617653    -0.737417249769    -0.481253245142    12.000000000000
         C           -2.421897617653     0.412939750231     0.474385754858    12.000000000000
         H           -1.159679617653    -1.189403249769    -0.268708245142     1.007825032230
         H           -2.114906617653    -0.396700249769    -1.516103245142     1.007825032230
         H           -2.882431617653    -1.519259249769    -0.400049245142     1.007825032230
         H           -1.673012617653     1.199162750231     0.386227754858     1.007825032230
         H           -2.426526617653     0.073416750231     1.509665754858     1.007825032230
         H           -3.394829617653     0.857306750231     0.267719754858     1.007825032230

  Charge       = 0
  Multiplicity = 1
  Basis Set: JUN-CC-PVTZ
    Blend: JUN-CC-PVTZ
  Basis Set: (JUN-CC-PVTZ AUX)
    Blend: JUN-CC-PVTZ-JKFIT

    Orbital Energies [Eh]
    ---------------------

    Doubly Occupied:

       1A    -11.210512     2A    -11.209900     3A     -1.018483
       4A     -0.841615     5A     -0.597104     6A     -0.597033
       7A     -0.509817     8A     -0.486618     9A     -0.486544

  @DF-RHF Final Energy:   -79.26014738102182

   => Energetics <=

    Nuclear Repulsion Energy =             42.3401277033196379
    One-Electron Energy =                -189.2852988157110019
    Two-Electron Energy =                  67.6850237313695402
    Total Energy =                        -79.2601473810218238

  Dipole Moment: [D]
     X:    -0.0014      Y:    -0.0001      Z:     0.0002     Total:     0.0014

    SAPT Results
  --------------------------------------------------------------------------------------------------------
    Electrostatics                 -1.23136560 [mEh]      -0.77269358 [kcal/mol]      -3.23294993 [kJ/mol]
      Elst10,r                     -1.23136560 [mEh]      -0.77269358 [kcal/mol]      -3.23294993 [kJ/mol]

    Exchange                        3.80010631 [mEh]       2.38460271 [kcal/mol]       9.97717775 [kJ/mol]
      Exch10                        3.80010631 [mEh]       2.38460271 [kcal/mol]       9.97717775 [kJ/mol]
      Exch10(S^2)                   3.79433862 [mEh]       2.38098343 [kcal/mol]       9.96203466 [kJ/mol]

    Induction                      -0.31490741 [mEh]      -0.19760738 [kcal/mol]      -0.82678929 [kJ/mol]
      Ind20,r                      -0.56508519 [mEh]      -0.35459631 [kcal/mol]      -1.48363097 [kJ/mol]
      Exch-Ind20,r                  0.49730209 [mEh]       0.31206177 [kcal/mol]       1.30566646 [kJ/mol]
      delta HF,r (2)               -0.24712431 [mEh]      -0.15507284 [kcal/mol]      -0.64882478 [kJ/mol]

    Dispersion                     -4.81344585 [mEh]      -3.02048287 [kcal/mol]     -12.63770033 [kJ/mol]
      Disp20                       -5.22320837 [mEh]      -3.27761274 [kcal/mol]     -13.71353169 [kJ/mol]
      Exch-Disp20                   0.40976252 [mEh]       0.25712987 [kcal/mol]       1.07583136 [kJ/mol]
      Disp20 (SS)                  -2.61160419 [mEh]      -1.63880637 [kcal/mol]      -6.85676584 [kJ/mol]
      Disp20 (OS)                  -2.61160419 [mEh]      -1.63880637 [kcal/mol]      -6.85676584 [kJ/mol]
      Exch-Disp20 (SS)              0.26929069 [mEh]       0.16898246 [kcal/mol]       0.70702261 [kJ/mol]
      Exch-Disp20 (OS)              0.14047184 [mEh]       0.08814741 [kcal/mol]       0.36880875 [kJ/mol]

  Total HF                          2.25383331 [mEh]       1.41430175 [kcal/mol]       5.91743853 [kJ/mol]
  Total SAPT0                      -2.55961254 [mEh]      -1.60618112 [kcal/mol]      -6.72026180 [kJ/mol]

  Special recipe for scaled SAPT0 (see Manual):
    Electrostatics sSAPT0          -1.23136560 [mEh]      -0.77269358 [kcal/mol]      -3.23294993 [kJ/mol]
    Exchange sSAPT0                 3.80010631 [mEh]       2.38460271 [kcal/mol]       9.97717775 [kJ/mol]
    Induction sSAPT0               -0.31263614 [mEh]      -0.19618214 [kcal/mol]      -0.82082608 [kJ/mol]
    Dispersion sSAPT0              -4.81157439 [mEh]      -3.01930851 [kcal/mol]     -12.63278682 [kJ/mol]
  Total sSAPT0                     -2.55546982 [mEh]      -1.60358152 [kcal/mol]      -6.70938508 [kJ/mol]
  --------------------------------------------------------------------------------------------------------

*** Psi4 exiting successfully. Buy a developer a beer!
