                               Psi4 1.3.2 release

  ==> Input File <==

--------------------------------------------------------------------------
# Any line starting with the # character is a comment line
#! Sample  computation

memory 22 gb

molecule Dimer {

0 1
 C    1.84825400   -0.68442800    0.33532500
 C    1.84830300    0.68442600   -0.33481000
 H    0.96925500   -0.81633900    0.96537000
 H    2.72888900   -0.81468200    0.96319700
 H    1.84689500   -1.48518200   -0.40342900
 H    1.84672500    1.48518000    0.40394400
 H    0.96945100    0.81629100   -0.96506800
 H    2.72908600    0.81472300   -0.96246600
 --
0 1
 C   -1.84825900   -0.68442600   -0.33532600
 C   -1.84829800    0.68442800    0.33481000
 H   -1.84691700   -1.48518000    0.40342900
 H   -0.96925700   -0.81634700   -0.96536200
 H   -2.72889000   -0.81466900   -0.96320500
 H   -0.96944900    0.81628400    0.96507400
 H   -2.72908300    0.81473500    0.96246000
 H   -1.84670500    1.48518200   -0.40394400

units angstrom

no_reorient
symmetry c1
}

set globals{
  basis jun-cc-pVTZ
  scf_type DF
  freeze_core True
}

energy('sapt0')

--------------------------------------------------------------------------

  //              Dimer HF             //
    Molecular point group: c1
  Charge       = 0
  Multiplicity = 1
  Basis Set: JUN-CC-PVTZ
    Blend: JUN-CC-PVTZ
  Basis Set: (JUN-CC-PVTZ AUX)
    Blend: JUN-CC-PVTZ-JKFIT
  @DF-RHF Final Energy:  -158.51834145074918
    Total Energy =                       -158.5183414507491761
  //            Monomer A HF           //
    Molecular point group: c1
  Multiplicity = 1
  Basis Set: JUN-CC-PVTZ
    Blend: JUN-CC-PVTZ
  Basis Set: (JUN-CC-PVTZ AUX)
    Blend: JUN-CC-PVTZ-JKFIT
  @DF-RHF Final Energy:   -79.26014499209829
    Total Energy =                        -79.2601449920982901
  //            Monomer B HF           //
    Molecular point group: c1

    Geometry (in Angstrom), charge = 0, multiplicity = 1:

       Center              X                  Y                   Z               Mass
    ------------   -----------------  -----------------  -----------------  -----------------
      Gh(C)           1.848254000000    -0.684427932917     0.335325199687    12.000000000000
      Gh(C)           1.848303000000     0.684426067083    -0.334809800313    12.000000000000
      Gh(H)           0.969255000000    -0.816338932917     0.965370199687     1.007825032230
      Gh(H)           2.728889000000    -0.814681932917     0.963197199687     1.007825032230
      Gh(H)           1.846895000000    -1.485181932917    -0.403428800313     1.007825032230
      Gh(H)           1.846725000000     1.485180067083     0.403944199687     1.007825032230
      Gh(H)           0.969451000000     0.816291067083    -0.965067800313     1.007825032230
      Gh(H)           2.729086000000     0.814723067083    -0.962465800313     1.007825032230
         C           -1.848259000000    -0.684425932917    -0.335325800313    12.000000000000
         C           -1.848298000000     0.684428067083     0.334810199687    12.000000000000
         H           -1.846917000000    -1.485179932917     0.403429199687     1.007825032230
         H           -0.969257000000    -0.816346932917    -0.965361800313     1.007825032230
         H           -2.728890000000    -0.814668932917    -0.963204800313     1.007825032230
         H           -0.969449000000     0.816284067083     0.965074199687     1.007825032230
         H           -2.729083000000     0.814735067083     0.962460199687     1.007825032230
         H           -1.846705000000     1.485182067083    -0.403943800313     1.007825032230

  Charge       = 0
  Multiplicity = 1
  Basis Set: JUN-CC-PVTZ
    Blend: JUN-CC-PVTZ
  Basis Set: (JUN-CC-PVTZ AUX)
    Blend: JUN-CC-PVTZ-JKFIT

    Orbital Energies [Eh]
    ---------------------

    Doubly Occupied:

       1A    -11.210504     2A    -11.209893     3A     -1.018474
       4A     -0.841709     5A     -0.597138     6A     -0.596903
       7A     -0.509952     8A     -0.486691     9A     -0.486449

  @DF-RHF Final Energy:   -79.26014500649215

   => Energetics <=

    Nuclear Repulsion Energy =             42.3400412522638518
    One-Electron Energy =                -189.2849452927373477
    Two-Electron Energy =                  67.6847590339813365
    Total Energy =                        -79.2601450064921522

  Dipole Moment: [D]
     X:    -0.0007      Y:     0.0000      Z:    -0.0000     Total:     0.0007

    SAPT Results
  --------------------------------------------------------------------------------------------------------
    Electrostatics                 -0.91501874 [mEh]      -0.57418293 [kcal/mol]      -2.40238138 [kJ/mol]
      Elst10,r                     -0.91501874 [mEh]      -0.57418293 [kcal/mol]      -2.40238138 [kJ/mol]

    Exchange                        3.10153257 [mEh]       1.94624107 [kcal/mol]       8.14307263 [kJ/mol]
      Exch10                        3.10153257 [mEh]       1.94624107 [kcal/mol]       8.14307263 [kJ/mol]
      Exch10(S^2)                   3.09601153 [mEh]       1.94277657 [kcal/mol]       8.12857716 [kJ/mol]

    Induction                      -0.23796598 [mEh]      -0.14932591 [kcal/mol]      -0.62477960 [kJ/mol]
      Ind20,r                      -0.44164251 [mEh]      -0.27713486 [kcal/mol]      -1.15953226 [kJ/mol]
      Exch-Ind20,r                  0.39407339 [mEh]       0.24728479 [kcal/mol]       1.03463955 [kJ/mol]
      delta HF,r (2)               -0.19039686 [mEh]      -0.11947583 [kcal/mol]      -0.49988688 [kJ/mol]

    Dispersion                     -3.98780118 [mEh]      -2.50238302 [kcal/mol]     -10.46997056 [kJ/mol]
      Disp20                       -4.31568723 [mEh]      -2.70813462 [kcal/mol]     -11.33083527 [kJ/mol]
      Exch-Disp20                   0.32788605 [mEh]       0.20575160 [kcal/mol]       0.86086471 [kJ/mol]
      Disp20 (SS)                  -2.15784362 [mEh]      -1.35406731 [kcal/mol]      -5.66541763 [kJ/mol]
      Disp20 (OS)                  -2.15784362 [mEh]      -1.35406731 [kcal/mol]      -5.66541763 [kJ/mol]
      Exch-Disp20 (SS)              0.21604323 [mEh]       0.13556917 [kcal/mol]       0.56722143 [kJ/mol]
      Exch-Disp20 (OS)              0.11184282 [mEh]       0.07018243 [kcal/mol]       0.29364329 [kJ/mol]

  Total HF                          1.94854784 [mEh]       1.22273223 [kcal/mol]       5.11591165 [kJ/mol]
  Total SAPT0                      -2.03925334 [mEh]      -1.27965079 [kcal/mol]      -5.35405890 [kJ/mol]

  Special recipe for scaled SAPT0 (see Manual):
    Electrostatics sSAPT0          -0.91501874 [mEh]      -0.57418293 [kcal/mol]      -2.40238138 [kJ/mol]
    Exchange sSAPT0                 3.10153257 [mEh]       1.94624107 [kcal/mol]       8.14307263 [kJ/mol]
    Induction sSAPT0               -0.23585400 [mEh]      -0.14800062 [kcal/mol]      -0.61923459 [kJ/mol]
    Dispersion sSAPT0              -3.98604392 [mEh]      -2.50128032 [kcal/mol]     -10.46535687 [kJ/mol]
  Total sSAPT0                     -2.03538409 [mEh]      -1.27722280 [kcal/mol]      -5.34390020 [kJ/mol]
  --------------------------------------------------------------------------------------------------------

*** Psi4 exiting successfully. Buy a developer a beer!
