                               Psi4 1.3.2 release

  ==> Input File <==

--------------------------------------------------------------------------
# Any line starting with the # character is a comment line
#! Sample  computation

memory 22 gb

molecule Dimer {
0 1
 C  1.950648   -2.043035   -0.416239
 H  1.111758   -2.357901   -1.038805
 H  2.765954   -1.755546   -1.081430
 H  2.278963   -2.905001    0.164052
 C  1.549365   -0.878953    0.481065
 H  2.391213   -0.595980    1.118657
 H  0.743880   -1.189986    1.151234
 C  1.095697    0.338550   -0.313932
 H  1.914600    0.674039   -0.958990
 H  0.276339    0.051323   -0.981676
 C  0.642500    1.495122    0.567411
 H  1.449422    1.758508    1.256639
 H -0.196421    1.164690    1.186545
 C  0.238040    2.721341   -0.241687
 H  -0.573092    2.482144   -0.930938
 H  -0.096990    3.535620    0.400414
 H   1.077877    3.085214   -0.834974

 --
0 1
 C -2.263551   -1.381700    0.341559
 C -2.847696   -0.145522   -0.331864
 H -1.984974   -1.173463    1.374319
 H -1.370806   -1.729815   -0.177408
 H -2.981453   -2.201137    0.351281
 H -2.134136    0.677802   -0.331164
 H -3.745815    0.195458    0.181905
 H -3.116334   -0.350791   -1.367541

units angstrom

no_reorient
symmetry c1
}

set globals{
  basis jun-cc-pvtz
}

energy('sapt0')

--------------------------------------------------------------------------

  //              Dimer HF             //
    Molecular point group: c1
  Charge       = 0
  Multiplicity = 1
  Basis Set: JUN-CC-PVTZ
    Blend: JUN-CC-PVTZ
  Basis Set: (JUN-CC-PVTZ AUX)
    Blend: JUN-CC-PVTZ-JKFIT
  @DF-RHF Final Energy:  -275.66097048399098
    Total Energy =                       -275.6609704839909796
  //            Monomer A HF           //
    Molecular point group: c1
  Multiplicity = 1
  Basis Set: JUN-CC-PVTZ
    Blend: JUN-CC-PVTZ
  Basis Set: (JUN-CC-PVTZ AUX)
    Blend: JUN-CC-PVTZ-JKFIT
  @DF-RHF Final Energy:  -196.40367875126057
    Total Energy =                       -196.4036787512605713
  //            Monomer B HF           //
    Molecular point group: c1

    Geometry (in Angstrom), charge = 0, multiplicity = 1:

       Center              X                  Y                   Z               Mass
    ------------   -----------------  -----------------  -----------------  -----------------
      Gh(C)           1.929374591274    -2.049201450483    -0.421269539391    12.000000000000
      Gh(H)           1.090484591274    -2.364067450483    -1.043835539391     1.007825032230
      Gh(H)           2.744680591274    -1.761712450483    -1.086460539391     1.007825032230
      Gh(H)           2.257689591274    -2.911167450483     0.159021460609     1.007825032230
      Gh(C)           1.528091591274    -0.885119450483     0.476034460609    12.000000000000
      Gh(H)           2.369939591274    -0.602146450483     1.113626460609     1.007825032230
      Gh(H)           0.722606591274    -1.196152450483     1.146203460609     1.007825032230
      Gh(C)           1.074423591274     0.332383549517    -0.318962539391    12.000000000000
      Gh(H)           1.893326591274     0.667872549517    -0.964020539391     1.007825032230
      Gh(H)           0.255065591274     0.045156549517    -0.986706539391     1.007825032230
      Gh(C)           0.621226591274     1.488955549517     0.562380460609    12.000000000000
      Gh(H)           1.428148591274     1.752341549517     1.251608460609     1.007825032230
      Gh(H)          -0.217694408726     1.158523549517     1.181514460609     1.007825032230
      Gh(C)           0.216766591274     2.715174549517    -0.246717539391    12.000000000000
      Gh(H)          -0.594365408726     2.475977549517    -0.935968539391     1.007825032230
      Gh(H)          -0.118263408726     3.529453549517     0.395383460609     1.007825032230
      Gh(H)           1.056603591274     3.079047549517    -0.840004539391     1.007825032230
         C           -2.284824408726    -1.387866450483     0.336528460609    12.000000000000
         C           -2.868969408726    -0.151688450483    -0.336894539391    12.000000000000
         H           -2.006247408726    -1.179629450483     1.369288460609     1.007825032230
         H           -1.392079408726    -1.735981450483    -0.182438539391     1.007825032230
         H           -3.002726408726    -2.207303450483     0.346250460609     1.007825032230
         H           -2.155409408726     0.671635549517    -0.336194539391     1.007825032230
         H           -3.767088408726     0.189291549517     0.176874460609     1.007825032230
         H           -3.137607408726    -0.356957450483    -1.372571539391     1.007825032230

  Charge       = 0
  Multiplicity = 1
  Basis Set: JUN-CC-PVTZ
    Blend: JUN-CC-PVTZ
  Basis Set: (JUN-CC-PVTZ AUX)
    Blend: JUN-CC-PVTZ-JKFIT

    Orbital Energies [Eh]
    ---------------------

    Doubly Occupied:

       1A    -11.210546     2A    -11.209932     3A     -1.018454
       4A     -0.841628     5A     -0.597075     6A     -0.596958
       7A     -0.509892     8A     -0.486594     9A     -0.486503

  @DF-RHF Final Energy:   -79.26015107630937

   => Energetics <=

    Nuclear Repulsion Energy =             42.3380710230810493
    One-Electron Energy =                -189.2812833448899141
    Two-Electron Energy =                  67.6830612454994878
    Total Energy =                        -79.2601510763093700

  Dipole Moment: [D]
     X:    -0.0011      Y:     0.0003      Z:     0.0002     Total:     0.0011

    SAPT Results
  --------------------------------------------------------------------------------------------------------
    Electrostatics                 -1.45138022 [mEh]      -0.91075484 [kcal/mol]      -3.81059824 [kJ/mol]
      Elst10,r                     -1.45138022 [mEh]      -0.91075484 [kcal/mol]      -3.81059824 [kJ/mol]

    Exchange                        4.71008633 [mEh]       2.95562380 [kcal/mol]      12.36632997 [kJ/mol]
      Exch10                        4.71008633 [mEh]       2.95562380 [kcal/mol]      12.36632997 [kJ/mol]
      Exch10(S^2)                   4.70363821 [mEh]       2.95157754 [kcal/mol]      12.34940041 [kJ/mol]

    Induction                      -0.39936253 [mEh]      -0.25060377 [kcal/mol]      -1.04852619 [kJ/mol]
      Ind20,r                      -0.70955227 [mEh]      -0.44525077 [kcal/mol]      -1.86292922 [kJ/mol]
      Exch-Ind20,r                  0.62443963 [mEh]       0.39184178 [kcal/mol]       1.63946603 [kJ/mol]
      delta HF,r (2)               -0.31424990 [mEh]      -0.19719479 [kcal/mol]      -0.82506299 [kJ/mol]

    Dispersion                     -6.10040229 [mEh]      -3.82806023 [kcal/mol]     -16.01660400 [kJ/mol]
      Disp20                       -6.62021760 [mEh]      -4.15424926 [kcal/mol]     -17.38137892 [kJ/mol]
      Exch-Disp20                   0.51981531 [mEh]       0.32618903 [kcal/mol]       1.36477491 [kJ/mol]
      Disp20 (SS)                  -3.31010880 [mEh]      -2.07712463 [kcal/mol]      -8.69068946 [kJ/mol]
      Disp20 (OS)                  -3.31010880 [mEh]      -2.07712463 [kcal/mol]      -8.69068946 [kJ/mol]
      Exch-Disp20 (SS)              0.34203260 [mEh]       0.21462870 [kcal/mol]       0.89800646 [kJ/mol]
      Exch-Disp20 (OS)              0.17778271 [mEh]       0.11156034 [kcal/mol]       0.46676845 [kJ/mol]

  Total HF                          2.85934358 [mEh]       1.79426518 [kcal/mol]       7.50720553 [kJ/mol]
  Total SAPT0                      -3.24105871 [mEh]      -2.03379505 [kcal/mol]      -8.50939847 [kJ/mol]

  Special recipe for scaled SAPT0 (see Manual):
    Electrostatics sSAPT0          -1.45138022 [mEh]      -0.91075484 [kcal/mol]      -3.81059824 [kJ/mol]
    Exchange sSAPT0                 4.71008633 [mEh]       2.95562380 [kcal/mol]      12.36632997 [kJ/mol]
    Induction sSAPT0               -0.39679091 [mEh]      -0.24899006 [kcal/mol]      -1.04177440 [kJ/mol]
    Dispersion sSAPT0              -6.09826154 [mEh]      -3.82671689 [kcal/mol]     -16.01098347 [kJ/mol]
  Total sSAPT0                     -3.23634634 [mEh]      -2.03083799 [kcal/mol]      -8.49702616 [kJ/mol]
  --------------------------------------------------------------------------------------------------------

*** Psi4 exiting successfully. Buy a developer a beer!
