                               Psi4 1.3.2 release

  ==> Input File <==

--------------------------------------------------------------------------
# Any line starting with the # character is a comment line
#! Sample  computation

memory 22 gb

molecule Dimer {
0 1
 C 0.459161    1.982840    0.255988
 H 1.244490    2.492317    0.816064
 H -0.310174    1.677532    0.966844
 H 0.014817    2.704598   -0.429353
 C 1.020162    0.774454   -0.482491
 H 0.225285    0.288767   -1.055331
 H 1.769541    1.099039   -1.209690
 C 1.648638   -0.244483    0.459664
 H 0.907404   -0.547105    1.204080
 H 2.463618    0.232975    1.010519
 C 2.171027   -1.472042   -0.275649
 H 2.924443   -1.190440   -1.012479
 H 2.622628   -2.190164    0.408267
 H 1.362398   -1.977191   -0.806116

 --
0 1
 C -2.844558    0.005884   -0.444928
 C -2.157384   -0.987368    0.484773
 H -3.726801    0.438851    0.025141
 H -3.164248   -0.475801   -1.368283
 H -2.176680    0.824432   -0.711149
 H -2.828911   -1.800870    0.757181
 H -1.831575   -0.505178    1.406124
 H -1.278512   -1.427468    0.014037

units angstrom

no_reorient
symmetry c1
}

set globals{
  basis jun-cc-pvtz
}

energy('sapt0')

--------------------------------------------------------------------------

  //              Dimer HF             //
    Molecular point group: c1
  Charge       = 0
  Multiplicity = 1
  Basis Set: JUN-CC-PVTZ
    Blend: JUN-CC-PVTZ
  Basis Set: (JUN-CC-PVTZ AUX)
    Blend: JUN-CC-PVTZ-JKFIT
  @DF-RHF Final Energy:  -236.61353816920570
    Total Energy =                       -236.6135381692056967
  //            Monomer A HF           //
    Molecular point group: c1
  Multiplicity = 1
  Basis Set: JUN-CC-PVTZ
    Blend: JUN-CC-PVTZ
  Basis Set: (JUN-CC-PVTZ AUX)
    Blend: JUN-CC-PVTZ-JKFIT
  @DF-RHF Final Energy:  -157.35591435064998
    Total Energy =                       -157.3559143506499822
  //            Monomer B HF           //
    Molecular point group: c1

    Geometry (in Angstrom), charge = 0, multiplicity = 1:

       Center              X                  Y                   Z               Mass
    ------------   -----------------  -----------------  -----------------  -----------------
      Gh(C)           0.439094905232     1.978835122995     0.256166563296    12.000000000000
      Gh(H)           1.224423905232     2.488312122995     0.816242563296     1.007825032230
      Gh(H)          -0.330240094768     1.673527122995     0.967022563296     1.007825032230
      Gh(H)          -0.005249094768     2.700593122995    -0.429174436704     1.007825032230
      Gh(C)           1.000095905232     0.770449122995    -0.482312436704    12.000000000000
      Gh(H)           0.205218905232     0.284762122995    -1.055152436704     1.007825032230
      Gh(H)           1.749474905232     1.095034122995    -1.209511436704     1.007825032230
      Gh(C)           1.628571905232    -0.248487877005     0.459842563296    12.000000000000
      Gh(H)           0.887337905232    -0.551109877005     1.204258563296     1.007825032230
      Gh(H)           2.443551905232     0.228970122995     1.010697563296     1.007825032230
      Gh(C)           2.150960905232    -1.476046877005    -0.275470436704    12.000000000000
      Gh(H)           2.904376905232    -1.194444877005    -1.012300436704     1.007825032230
      Gh(H)           2.602561905232    -2.194168877005     0.408445563296     1.007825032230
      Gh(H)           1.342331905232    -1.981195877005    -0.805937436704     1.007825032230
         C           -2.864624094768     0.001879122995    -0.444749436704    12.000000000000
         C           -2.177450094768    -0.991372877005     0.484951563296    12.000000000000
         H           -3.746867094768     0.434846122995     0.025319563296     1.007825032230
         H           -3.184314094768    -0.479805877005    -1.368104436704     1.007825032230
         H           -2.196746094768     0.820427122995    -0.710970436704     1.007825032230
         H           -2.848977094768    -1.804874877005     0.757359563296     1.007825032230
         H           -1.851641094768    -0.509182877005     1.406302563296     1.007825032230
         H           -1.298578094768    -1.431472877005     0.014215563296     1.007825032230

  Charge       = 0
  Multiplicity = 1
  Basis Set: JUN-CC-PVTZ
    Blend: JUN-CC-PVTZ
  Basis Set: (JUN-CC-PVTZ AUX)
    Blend: JUN-CC-PVTZ-JKFIT

    Orbital Energies [Eh]
    ---------------------

    Doubly Occupied:

       1A    -11.210551     2A    -11.209938     3A     -1.018432
       4A     -0.841649     5A     -0.597076     6A     -0.596922
       7A     -0.509896     8A     -0.486624     9A     -0.486487

  @DF-RHF Final Energy:   -79.26014710562301

   => Energetics <=

    Nuclear Repulsion Energy =             42.3370513646801285
    One-Electron Energy =                -189.2792479607986422
    Two-Electron Energy =                  67.6820494904955154
    Total Energy =                        -79.2601471056230054

  Dipole Moment: [D]
     X:    -0.0015      Y:     0.0002      Z:     0.0002     Total:     0.0015

    SAPT Results
  --------------------------------------------------------------------------------------------------------
    Electrostatics                 -1.28457124 [mEh]      -0.80608062 [kcal/mol]      -3.37264133 [kJ/mol]
      Elst10,r                     -1.28457124 [mEh]      -0.80608062 [kcal/mol]      -3.37264133 [kJ/mol]

    Exchange                        4.13737787 [mEh]       2.59624381 [kcal/mol]      10.86268411 [kJ/mol]
      Exch10                        4.13737787 [mEh]       2.59624381 [kcal/mol]      10.86268411 [kJ/mol]
      Exch10(S^2)                   4.13215310 [mEh]       2.59296522 [kcal/mol]      10.84896647 [kJ/mol]

    Induction                      -0.32951956 [mEh]      -0.20677665 [kcal/mol]      -0.86515349 [kJ/mol]
      Ind20,r                      -0.59550684 [mEh]      -0.37368619 [kcal/mol]      -1.56350300 [kJ/mol]
      Exch-Ind20,r                  0.52725903 [mEh]       0.33086003 [kcal/mol]       1.38431838 [kJ/mol]
      delta HF,r (2)               -0.26127174 [mEh]      -0.16395050 [kcal/mol]      -0.68596887 [kJ/mol]

    Dispersion                     -5.39926404 [mEh]      -3.38808934 [kcal/mol]     -14.17576579 [kJ/mol]
      Disp20                       -5.84927953 [mEh]      -3.67047832 [kcal/mol]     -15.35728128 [kJ/mol]
      Exch-Disp20                   0.45001548 [mEh]       0.28238898 [kcal/mol]       1.18151549 [kJ/mol]
      Disp20 (SS)                  -2.92463976 [mEh]      -1.83523916 [kcal/mol]      -7.67864064 [kJ/mol]
      Disp20 (OS)                  -2.92463976 [mEh]      -1.83523916 [kcal/mol]      -7.67864064 [kJ/mol]
      Exch-Disp20 (SS)              0.29690462 [mEh]       0.18631046 [kcal/mol]       0.77952298 [kJ/mol]
      Exch-Disp20 (OS)              0.15311086 [mEh]       0.09607851 [kcal/mol]       0.40199251 [kJ/mol]

  Total HF                          2.52328707 [mEh]       1.58338654 [kcal/mol]       6.62488928 [kJ/mol]
  Total SAPT0                      -2.87597698 [mEh]      -1.80470280 [kcal/mol]      -7.55087651 [kJ/mol]

  Special recipe for scaled SAPT0 (see Manual):
    Electrostatics sSAPT0          -1.28457124 [mEh]      -0.80608062 [kcal/mol]      -3.37264133 [kJ/mol]
    Exchange sSAPT0                 4.13737787 [mEh]       2.59624381 [kcal/mol]      10.86268411 [kJ/mol]
    Induction sSAPT0               -0.32751700 [mEh]      -0.20552002 [kcal/mol]      -0.85989578 [kJ/mol]
    Dispersion sSAPT0              -5.39755486 [mEh]      -3.38701681 [kcal/mol]     -14.17127833 [kJ/mol]
  Total sSAPT0                     -2.87226523 [mEh]      -1.80237365 [kcal/mol]      -7.54113133 [kJ/mol]
  --------------------------------------------------------------------------------------------------------

*** Psi4 exiting successfully. Buy a developer a beer!
