                               Psi4 1.3.2 release

  ==> Input File <==

--------------------------------------------------------------------------
# Any line starting with the # character is a comment line
#! Sample  computation

memory 22 gb

molecule Dimer {

0 1
 C    -0.64798400    1.91755000    0.40194600
 C    -1.89463600    1.91169700   -0.47390300
 C    -3.18200100    1.90132500    0.34097200
 C     0.64727900    1.91554700   -0.39923400
 C     1.89402500    1.91703800    0.47649700
 C     3.18126700    1.90108100   -0.33850800
 H    -0.66626100    1.04349200    1.06137100
 H    -0.66944100    2.79652200    1.05476500
 H    -1.86579400    1.03802500   -1.13094900
 H    -1.87727100    2.78878200   -1.12667000
 H    -4.06397500    1.89644200   -0.29944600
 H    -3.23869800    2.78079200    0.98388600
 H    -3.22867600    1.01859900    0.98031300
 H     0.66639300    1.03714600   -1.05285100
 H     0.66776000    2.79017200   -1.05785500
 H     1.86568800    1.04834400    1.14017500
 H     1.87624600    2.79905500    1.12257500
 H     4.06336600    1.90184700    0.30175400
 H     3.23724800    2.77548800   -0.98836200
 H     3.22837000    1.01337300   -0.97085100

 --
0 1
 C     0.64797800   -1.91634900    0.39926500
 C     1.89469300   -1.91592800   -0.47650700
 C     3.18196600   -1.90232000    0.33848200
 C    -0.64727200   -1.91632400   -0.40191200
 C    -1.89396400   -1.91365800    0.47391900
 C    -3.18128700   -1.89972400   -0.34099800
 H     0.66724700   -1.03950300    1.05498400
 H     0.66839500   -2.79251400    1.05584100
 H     1.86656400   -1.04560600   -1.13804000
 H     1.87669400   -2.79633200   -1.12476500
 H     4.06404100   -1.90165500   -0.30181500
 H     3.23777700   -2.77838900    0.98610600
 H     3.22929600   -1.01622900    0.97309200
 H    -0.66576800   -1.04030400   -1.05873700
 H    -0.66845500   -2.79333900   -1.05732300
 H    -1.86491300   -1.04259000    1.13442200
 H    -1.87678700   -2.79332100    1.12321300
 H    -4.06330900   -1.89728700    0.29936400
 H    -3.23807800   -2.77655800   -0.98750200
 H    -3.22772400   -1.01438400   -0.97671500

units angstrom

no_reorient
symmetry c1
}

set globals{
  basis jun-cc-pVTZ
  scf_type DF
  freeze_core True
}

energy('sapt0')

--------------------------------------------------------------------------

  //              Dimer HF             //
    Molecular point group: c1
  Charge       = 0
  Multiplicity = 1
  Basis Set: JUN-CC-PVTZ
    Blend: JUN-CC-PVTZ
  Basis Set: (JUN-CC-PVTZ AUX)
    Blend: JUN-CC-PVTZ-JKFIT
  @DF-RHF Final Energy:  -470.89639016600006
    Total Energy =                       -470.8963901660000602
  //            Monomer A HF           //
    Molecular point group: c1
  Multiplicity = 1
  Basis Set: JUN-CC-PVTZ
    Blend: JUN-CC-PVTZ
  Basis Set: (JUN-CC-PVTZ AUX)
    Blend: JUN-CC-PVTZ-JKFIT
  @DF-RHF Final Energy:  -235.45153186603793
    Total Energy =                       -235.4515318660378966
  //            Monomer B HF           //
    Molecular point group: c1

    Geometry (in Angstrom), charge = 0, multiplicity = 1:

       Center              X                  Y                   Z               Mass
    ------------   -----------------  -----------------  -----------------  -----------------
      Gh(C)          -0.647988079056     1.917554131179     0.401944793145    12.000000000000
      Gh(C)          -1.894640079056     1.911701131179    -0.473904206855    12.000000000000
      Gh(C)          -3.182005079056     1.901329131179     0.340970793145    12.000000000000
      Gh(C)           0.647274920944     1.915551131179    -0.399235206855    12.000000000000
      Gh(C)           1.894020920944     1.917042131179     0.476495793145    12.000000000000
      Gh(C)           3.181262920944     1.901085131179    -0.338509206855    12.000000000000
      Gh(H)          -0.666265079056     1.043496131179     1.061369793145     1.007825032230
      Gh(H)          -0.669445079056     2.796526131179     1.054763793145     1.007825032230
      Gh(H)          -1.865798079056     1.038029131179    -1.130950206855     1.007825032230
      Gh(H)          -1.877275079056     2.788786131179    -1.126671206855     1.007825032230
      Gh(H)          -4.063979079056     1.896446131179    -0.299447206855     1.007825032230
      Gh(H)          -3.238702079056     2.780796131179     0.983884793145     1.007825032230
      Gh(H)          -3.228680079056     1.018603131179     0.980311793145     1.007825032230
      Gh(H)           0.666388920944     1.037150131179    -1.052852206855     1.007825032230
      Gh(H)           0.667755920944     2.790176131179    -1.057856206855     1.007825032230
      Gh(H)           1.865683920944     1.048348131179     1.140173793145     1.007825032230
      Gh(H)           1.876241920944     2.799059131179     1.122573793145     1.007825032230
      Gh(H)           4.063361920944     1.901851131179     0.301752793145     1.007825032230
      Gh(H)           3.237243920944     2.775492131179    -0.988363206855     1.007825032230
      Gh(H)           3.228365920944     1.013377131179    -0.970852206855     1.007825032230
         C            0.647973920944    -1.916344868821     0.399263793145    12.000000000000
         C            1.894688920944    -1.915923868821    -0.476508206855    12.000000000000
         C            3.181961920944    -1.902315868821     0.338480793145    12.000000000000
         C           -0.647276079056    -1.916319868821    -0.401913206855    12.000000000000
         C           -1.893968079056    -1.913653868821     0.473917793145    12.000000000000
         C           -3.181291079056    -1.899719868821    -0.340999206855    12.000000000000
         H            0.667242920944    -1.039498868821     1.054982793145     1.007825032230
         H            0.668390920944    -2.792509868821     1.055839793145     1.007825032230
         H            1.866559920944    -1.045601868821    -1.138041206855     1.007825032230
         H            1.876689920944    -2.796327868821    -1.124766206855     1.007825032230
         H            4.064036920944    -1.901650868821    -0.301816206855     1.007825032230
         H            3.237772920944    -2.778384868821     0.986104793145     1.007825032230
         H            3.229291920944    -1.016224868821     0.973090793145     1.007825032230
         H           -0.665772079056    -1.040299868821    -1.058738206855     1.007825032230
         H           -0.668459079056    -2.793334868821    -1.057324206855     1.007825032230
         H           -1.864917079056    -1.042585868821     1.134420793145     1.007825032230
         H           -1.876791079056    -2.793316868821     1.123211793145     1.007825032230
         H           -4.063313079056    -1.897282868821     0.299362793145     1.007825032230
         H           -3.238082079056    -2.776553868821    -0.987503206855     1.007825032230
         H           -3.227728079056    -1.014379868821    -0.976716206855     1.007825032230

  Charge       = 0
  Multiplicity = 1
  Basis Set: JUN-CC-PVTZ
    Blend: JUN-CC-PVTZ
  Basis Set: (JUN-CC-PVTZ AUX)
    Blend: JUN-CC-PVTZ-JKFIT

    Orbital Energies [Eh]
    ---------------------

    Doubly Occupied:

       1A    -11.212782     2A    -11.212771     3A    -11.210701
       4A    -11.210080     5A    -11.207246     6A    -11.207245
       7A     -1.086542     8A     -1.037220     9A     -0.961112
      10A     -0.870912    11A     -0.796918    12A     -0.784216
      13A     -0.652020    14A     -0.610149    15A     -0.595073
      16A     -0.577239    17A     -0.552779    18A     -0.527824
      19A     -0.524902    20A     -0.498948    21A     -0.480130
      22A     -0.466395    23A     -0.459328    24A     -0.458044
      25A     -0.438148

  @DF-RHF Final Energy:  -235.45153159464240

   => Energetics <=

    Nuclear Repulsion Energy =            244.9934415362611446
    One-Electron Energy =                -801.6124905431263414
    Two-Electron Energy =                 321.1675174122228213
    Total Energy =                       -235.4515315946424039

  Dipole Moment: [D]
     X:    -0.0000      Y:    -0.0022      Z:    -0.0000     Total:     0.0022

    SAPT Results
  --------------------------------------------------------------------------------------------------------
    Electrostatics                 -3.13181235 [mEh]      -1.96524192 [kcal/mol]      -8.22257220 [kJ/mol]
      Elst10,r                     -3.13181235 [mEh]      -1.96524192 [kcal/mol]      -8.22257220 [kJ/mol]

    Exchange                       10.80124429 [mEh]       6.77788312 [kcal/mol]      28.35866298 [kJ/mol]
      Exch10                       10.80124429 [mEh]       6.77788312 [kcal/mol]      28.35866298 [kJ/mol]
      Exch10(S^2)                  10.79133846 [mEh]       6.77166712 [kcal/mol]      28.33265521 [kJ/mol]

    Induction                      -0.99613726 [mEh]      -0.62508557 [kcal/mol]      -2.61535801 [kJ/mol]
      Ind20,r                      -1.55042601 [mEh]      -0.97290701 [kcal/mol]      -4.07064294 [kJ/mol]
      Exch-Ind20,r                  1.32203644 [mEh]       0.82959039 [kcal/mol]       3.47100620 [kJ/mol]
      delta HF,r (2)               -0.76774768 [mEh]      -0.48176895 [kcal/mol]      -2.01572127 [kJ/mol]

    Dispersion                    -14.27593207 [mEh]      -8.95828262 [kcal/mol]     -37.48145450 [kJ/mol]
      Disp20                      -15.48815965 [mEh]      -9.71896691 [kcal/mol]     -40.66415756 [kJ/mol]
      Exch-Disp20                   1.21222758 [mEh]       0.76068429 [kcal/mol]       3.18270306 [kJ/mol]
      Disp20 (SS)                  -7.74407982 [mEh]      -4.85948346 [kcal/mol]     -20.33207878 [kJ/mol]
      Disp20 (OS)                  -7.74407982 [mEh]      -4.85948346 [kcal/mol]     -20.33207878 [kJ/mol]
      Exch-Disp20 (SS)              0.80139447 [mEh]       0.50288262 [kcal/mol]       2.10406090 [kJ/mol]
      Exch-Disp20 (OS)              0.41083310 [mEh]       0.25780166 [kcal/mol]       1.07864217 [kJ/mol]

  Total HF                          6.67329468 [mEh]       4.18755563 [kcal/mol]      17.52073277 [kJ/mol]
  Total SAPT0                      -7.60263739 [mEh]      -4.77072699 [kcal/mol]     -19.96072173 [kJ/mol]

  Special recipe for scaled SAPT0 (see Manual):
    Electrostatics sSAPT0          -3.13181235 [mEh]      -1.96524192 [kcal/mol]      -8.22257220 [kJ/mol]
    Exchange sSAPT0                10.80124429 [mEh]       6.77788312 [kcal/mol]      28.35866298 [kJ/mol]
    Induction sSAPT0               -0.99249325 [mEh]      -0.62279892 [kcal/mol]      -2.60579067 [kJ/mol]
    Dispersion sSAPT0             -14.27259074 [mEh]      -8.95618590 [kcal/mol]     -37.47268183 [kJ/mol]
  Total sSAPT0                     -7.59565205 [mEh]      -4.76634362 [kcal/mol]     -19.94238172 [kJ/mol]
  --------------------------------------------------------------------------------------------------------

*** Psi4 exiting successfully. Buy a developer a beer!
