                               Psi4 1.3.2 release

  ==> Input File <==

--------------------------------------------------------------------------
# Any line starting with the # character is a comment line
#! Sample  computation

memory 22 gb

molecule Dimer {
0 1
 C -1.132267    2.069621    0.052476
 H -0.419476    2.007412    0.876255
 H -2.052168    2.508114    0.441831
 H -0.723280    2.753020   -0.691522
 C -1.398617    0.689992   -0.535456
 H -2.088532    0.772781   -1.379812
 H -0.470385    0.273569   -0.936154
 C -1.978105   -0.280295    0.486272
 H -2.926832    0.116347    0.858109
 H -1.308656   -0.335130    1.349416
 C -2.188445   -1.674800   -0.089966
 H -1.242262   -2.096030   -0.432684
 H -2.611444   -2.356265    0.647720
 H -2.866332   -1.642094   -0.943974

 --
0 1
 C 2.019147   -1.502536   -0.283859
 C 2.032793   -0.260549    0.598818
 C 2.494300    0.975461   -0.163055
 H 1.359082   -1.361213   -1.141314
 H 3.018055   -1.713336   -0.668554
 H 1.676550   -2.381683    0.261768
 H 2.688676   -0.428681    1.455575
 H 1.033491   -0.088823    1.004268
 H 2.502796    1.861182    0.471905
 H 3.502408    0.832511   -0.554967
 H 1.835471    1.176954   -1.009243

units angstrom

no_reorient
symmetry c1
}

set globals{
  basis jun-cc-pvtz
}

energy('sapt0')

--------------------------------------------------------------------------

  //              Dimer HF             //
    Molecular point group: c1
  Charge       = 0
  Multiplicity = 1
  Basis Set: JUN-CC-PVTZ
    Blend: JUN-CC-PVTZ
  Basis Set: (JUN-CC-PVTZ AUX)
    Blend: JUN-CC-PVTZ-JKFIT
  @DF-RHF Final Energy:  -275.66066001513178
    Total Energy =                       -275.6606600151317821
  //            Monomer A HF           //
    Molecular point group: c1
  Multiplicity = 1
  Basis Set: JUN-CC-PVTZ
    Blend: JUN-CC-PVTZ
  Basis Set: (JUN-CC-PVTZ AUX)
    Blend: JUN-CC-PVTZ-JKFIT
  @DF-RHF Final Energy:  -157.35591637982350
    Total Energy =                       -157.3559163798234977
  //            Monomer B HF           //
    Molecular point group: c1

    Geometry (in Angstrom), charge = 0, multiplicity = 1:

       Center              X                  Y                   Z               Mass
    ------------   -----------------  -----------------  -----------------  -----------------
      Gh(C)          -1.123454977944     2.068636381064     0.048674186522    12.000000000000
      Gh(H)          -0.410663977944     2.006427381064     0.872453186522     1.007825032230
      Gh(H)          -2.043355977944     2.507129381064     0.438029186522     1.007825032230
      Gh(H)          -0.714467977944     2.752035381064    -0.695323813478     1.007825032230
      Gh(C)          -1.389804977944     0.689007381064    -0.539257813478    12.000000000000
      Gh(H)          -2.079719977944     0.771796381064    -1.383613813478     1.007825032230
      Gh(H)          -0.461572977944     0.272584381064    -0.939955813478     1.007825032230
      Gh(C)          -1.969292977944    -0.281279618936     0.482470186522    12.000000000000
      Gh(H)          -2.918019977944     0.115362381064     0.854307186522     1.007825032230
      Gh(H)          -1.299843977944    -0.336114618936     1.345614186522     1.007825032230
      Gh(C)          -2.179632977944    -1.675784618936    -0.093767813478    12.000000000000
      Gh(H)          -1.233449977944    -2.097014618936    -0.436485813478     1.007825032230
      Gh(H)          -2.602631977944    -2.357249618936     0.643918186522     1.007825032230
      Gh(H)          -2.857519977944    -1.643078618936    -0.947775813478     1.007825032230
         C            2.027959022056    -1.503520618936    -0.287660813478    12.000000000000
         C            2.041605022056    -0.261533618936     0.595016186522    12.000000000000
         C            2.503112022056     0.974476381064    -0.166856813478    12.000000000000
         H            1.367894022056    -1.362197618936    -1.145115813478     1.007825032230
         H            3.026867022056    -1.714320618936    -0.672355813478     1.007825032230
         H            1.685362022056    -2.382667618936     0.257966186522     1.007825032230
         H            2.697488022056    -0.429665618936     1.451773186522     1.007825032230
         H            1.042303022056    -0.089807618936     1.000466186522     1.007825032230
         H            2.511608022056     1.860197381064     0.468103186522     1.007825032230
         H            3.511220022056     0.831526381064    -0.558768813478     1.007825032230
         H            1.844283022056     1.175969381064    -1.013044813478     1.007825032230

  Charge       = 0
  Multiplicity = 1
  Basis Set: JUN-CC-PVTZ
    Blend: JUN-CC-PVTZ
  Basis Set: (JUN-CC-PVTZ AUX)
    Blend: JUN-CC-PVTZ-JKFIT

    Orbital Energies [Eh]
    ---------------------

    Doubly Occupied:

       1A    -11.215605     2A    -11.207879     3A    -11.207841
       4A     -1.054046     5A     -0.924771     6A     -0.799850
       7A     -0.624703     8A     -0.598292     9A     -0.549359
      10A     -0.530118    11A     -0.475629    12A     -0.474912
      13A     -0.467978

  @DF-RHF Final Energy:  -118.30809709391457

   => Energetics <=

    Nuclear Repulsion Energy =             82.8187327666949926
    One-Electron Energy =                -321.9916946350697344
    Two-Electron Energy =                 120.8648647744601590
    Total Energy =                       -118.3080970939145686

  Dipole Moment: [D]
     X:    -0.0212      Y:     0.0007      Z:     0.0808     Total:     0.0835

    SAPT Results
  --------------------------------------------------------------------------------------------------------
    Electrostatics                 -1.68212881 [mEh]      -1.05555176 [kcal/mol]      -4.41642857 [kJ/mol]
      Elst10,r                     -1.68212881 [mEh]      -1.05555176 [kcal/mol]      -4.41642857 [kJ/mol]

    Exchange                        5.52463182 [mEh]       3.46675881 [kcal/mol]      14.50491886 [kJ/mol]
      Exch10                        5.52463182 [mEh]       3.46675881 [kcal/mol]      14.50491886 [kJ/mol]
      Exch10(S^2)                   5.51411030 [mEh]       3.46015645 [kcal/mol]      14.47729459 [kJ/mol]

    Induction                      -0.48904441 [mEh]      -0.30688000 [kcal/mol]      -1.28398592 [kJ/mol]
      Ind20,r                      -0.88345486 [mEh]      -0.55437629 [kcal/mol]      -2.31951041 [kJ/mol]
      Exch-Ind20,r                  0.77476323 [mEh]       0.48617127 [kcal/mol]       2.03414058 [kJ/mol]
      delta HF,r (2)               -0.38035279 [mEh]      -0.23867498 [kcal/mol]      -0.99861610 [kJ/mol]

    Dispersion                     -7.11199126 [mEh]      -4.46284189 [kcal/mol]     -18.67253048 [kJ/mol]
      Disp20                       -7.72997022 [mEh]      -4.85062955 [kcal/mol]     -20.29503402 [kJ/mol]
      Exch-Disp20                   0.61797896 [mEh]       0.38778765 [kcal/mol]       1.62250354 [kJ/mol]
      Disp20 (SS)                  -3.86498511 [mEh]      -2.42531477 [kcal/mol]     -10.14751701 [kJ/mol]
      Disp20 (OS)                  -3.86498511 [mEh]      -2.42531477 [kcal/mol]     -10.14751701 [kJ/mol]
      Exch-Disp20 (SS)              0.40498105 [mEh]       0.25412945 [kcal/mol]       1.06327760 [kJ/mol]
      Exch-Disp20 (OS)              0.21299791 [mEh]       0.13365821 [kcal/mol]       0.55922594 [kJ/mol]

  Total HF                          3.35345861 [mEh]       2.10432705 [kcal/mol]       8.80450436 [kJ/mol]
  Total SAPT0                      -3.75853265 [mEh]      -2.35851485 [kcal/mol]      -9.86802612 [kJ/mol]

  Special recipe for scaled SAPT0 (see Manual):
    Electrostatics sSAPT0          -1.68212881 [mEh]      -1.05555176 [kcal/mol]      -4.41642857 [kJ/mol]
    Exchange sSAPT0                 5.52463182 [mEh]       3.46675881 [kcal/mol]      14.50491886 [kJ/mol]
    Induction sSAPT0               -0.48460094 [mEh]      -0.30409168 [kcal/mol]      -1.27231960 [kJ/mol]
    Dispersion sSAPT0              -7.10844699 [mEh]      -4.46061783 [kcal/mol]     -18.66322500 [kJ/mol]
  Total sSAPT0                     -3.75054492 [mEh]      -2.35350247 [kcal/mol]      -9.84705432 [kJ/mol]
  --------------------------------------------------------------------------------------------------------

*** Psi4 exiting successfully. Buy a developer a beer!
