                               Psi4 1.3.2 release

  ==> Input File <==

--------------------------------------------------------------------------
# Any line starting with the # character is a comment line
#! Sample  computation

memory 22 gb

molecule Dimer {
0 1
 C -1.354273    0.667740    0.385234
 C -2.472649    0.178611   -0.526193
 C -3.521078   -0.632061    0.225274
 C -0.269076    1.436206   -0.357029
 C 0.850988    1.925706    0.552334
 C 1.927910    2.688377   -0.209219
 H -0.905915   -0.190665    0.895655
 H -1.779218    1.304677    1.167908
 H -2.042729   -0.428858   -1.327316
 H -2.943686    1.038711   -1.009609
 H -4.318516   -0.971288   -0.435442
 H -3.973468   -0.037368    1.019952
 H -3.068974   -1.511860    0.685351
 H  0.154399    0.798154   -1.140359
 H -0.717806    2.293398   -0.869890
 H  1.297922    1.069237    1.064362
 H  0.425787    2.564766    1.330964
 H  2.721914    3.032945    0.452969
 H  1.503851    3.561023   -0.707784
 H  2.381061    2.056937   -0.974769

 --
0 1
 C  0.440195   -2.582366   -0.336320
 C  1.558161   -2.075039    0.566137
 C  2.652142   -1.370266   -0.226372
 H -0.009289   -1.758862   -0.893537
 H  0.825836   -3.300882   -1.061128
 H -0.349844   -3.071344    0.233939
 H  1.988377   -2.910813    1.121919
 H  1.146211   -1.390027    1.310506
 H  3.445096   -0.997568    0.421967
 H  3.101843   -2.050053   -0.951598
 H  2.243226   -0.521710   -0.777130

units angstrom

no_reorient
symmetry c1
}

set globals{
  basis jun-cc-pvtz
}

energy('sapt0')

--------------------------------------------------------------------------

  //              Dimer HF             //
    Molecular point group: c1
  Charge       = 0
  Multiplicity = 1
  Basis Set: JUN-CC-PVTZ
    Blend: JUN-CC-PVTZ
  Basis Set: (JUN-CC-PVTZ AUX)
    Blend: JUN-CC-PVTZ-JKFIT
  @DF-RHF Final Energy:  -353.75554788643399
    Total Energy =                       -353.7555478864339875
  //            Monomer A HF           //
    Molecular point group: c1
  Multiplicity = 1
  Basis Set: JUN-CC-PVTZ
    Blend: JUN-CC-PVTZ
  Basis Set: (JUN-CC-PVTZ AUX)
    Blend: JUN-CC-PVTZ-JKFIT
  @DF-RHF Final Energy:  -235.45148282498317
    Total Energy =                       -235.4514828249832021
  //            Monomer B HF           //
    Molecular point group: c1

    Geometry (in Angstrom), charge = 0, multiplicity = 1:

       Center              X                  Y                   Z               Mass
    ------------   -----------------  -----------------  -----------------  -----------------
      Gh(C)          -1.345689978230     0.656905707870     0.381856818625    12.000000000000
      Gh(C)          -2.464065978230     0.167776707870    -0.529570181375    12.000000000000
      Gh(C)          -3.512494978230    -0.642895292130     0.221896818625    12.000000000000
      Gh(C)          -0.260492978230     1.425371707870    -0.360406181375    12.000000000000
      Gh(C)           0.859571021770     1.914871707870     0.548956818625    12.000000000000
      Gh(C)           1.936493021770     2.677542707870    -0.212596181375    12.000000000000
      Gh(H)          -0.897331978230    -0.201499292130     0.892277818625     1.007825032230
      Gh(H)          -1.770634978230     1.293842707870     1.164530818625     1.007825032230
      Gh(H)          -2.034145978230    -0.439692292130    -1.330693181375     1.007825032230
      Gh(H)          -2.935102978230     1.027876707870    -1.012986181375     1.007825032230
      Gh(H)          -4.309932978230    -0.982122292130    -0.438819181375     1.007825032230
      Gh(H)          -3.964884978230    -0.048202292130     1.016574818625     1.007825032230
      Gh(H)          -3.060390978230    -1.522694292130     0.681973818625     1.007825032230
      Gh(H)           0.162982021770     0.787319707870    -1.143736181375     1.007825032230
      Gh(H)          -0.709222978230     2.282563707870    -0.873267181375     1.007825032230
      Gh(H)           1.306505021770     1.058402707870     1.060984818625     1.007825032230
      Gh(H)           0.434370021770     2.553931707870     1.327586818625     1.007825032230
      Gh(H)           2.730497021770     3.022110707870     0.449591818625     1.007825032230
      Gh(H)           1.512434021770     3.550188707870    -0.711161181375     1.007825032230
      Gh(H)           2.389644021770     2.046102707870    -0.978146181375     1.007825032230
         C            0.448778021770    -2.593200292130    -0.339697181375    12.000000000000
         C            1.566744021770    -2.085873292130     0.562759818625    12.000000000000
         C            2.660725021770    -1.381100292130    -0.229749181375    12.000000000000
         H           -0.000705978230    -1.769696292130    -0.896914181375     1.007825032230
         H            0.834419021770    -3.311716292130    -1.064505181375     1.007825032230
         H           -0.341260978230    -3.082178292130     0.230561818625     1.007825032230
         H            1.996960021770    -2.921647292130     1.118541818625     1.007825032230
         H            1.154794021770    -1.400861292130     1.307128818625     1.007825032230
         H            3.453679021770    -1.008402292130     0.418589818625     1.007825032230
         H            3.110426021770    -2.060887292130    -0.954975181375     1.007825032230
         H            2.251809021770    -0.532544292130    -0.780507181375     1.007825032230

  Charge       = 0
  Multiplicity = 1
  Basis Set: JUN-CC-PVTZ
    Blend: JUN-CC-PVTZ
  Basis Set: (JUN-CC-PVTZ AUX)
    Blend: JUN-CC-PVTZ-JKFIT

    Orbital Energies [Eh]
    ---------------------

    Doubly Occupied:

       1A    -11.215627     2A    -11.207910     3A    -11.207859
       4A     -1.054073     5A     -0.924665     6A     -0.799861
       7A     -0.624733     8A     -0.598362     9A     -0.549118
      10A     -0.530161    11A     -0.475675    12A     -0.474875
      13A     -0.467995

  @DF-RHF Final Energy:  -118.30808387215460

   => Energetics <=

    Nuclear Repulsion Energy =             82.8244059435584177
    One-Electron Energy =                -322.0031528330472952
    Two-Electron Energy =                 120.8706630173342802
    Total Energy =                       -118.3080838721545973

  Dipole Moment: [D]
     X:     0.0018      Y:    -0.0103      Z:     0.0832     Total:     0.0839

    SAPT Results
  --------------------------------------------------------------------------------------------------------
    Electrostatics                 -1.98377991 [mEh]      -1.24484069 [kcal/mol]      -5.20841344 [kJ/mol]
      Elst10,r                     -1.98377991 [mEh]      -1.24484069 [kcal/mol]      -5.20841344 [kJ/mol]

    Exchange                        6.59141256 [mEh]       4.13617383 [kcal/mol]      17.30575130 [kJ/mol]
      Exch10                        6.59141256 [mEh]       4.13617383 [kcal/mol]      17.30575130 [kJ/mol]
      Exch10(S^2)                   6.58217927 [mEh]       4.13037985 [kcal/mol]      17.28150930 [kJ/mol]

    Induction                      -0.58882194 [mEh]      -0.36949135 [kcal/mol]      -1.54595180 [kJ/mol]
      Ind20,r                      -1.03842146 [mEh]      -0.65161930 [kcal/mol]      -2.72637516 [kJ/mol]
      Exch-Ind20,r                  0.91106902 [mEh]       0.57170444 [kcal/mol]       2.39201139 [kJ/mol]
      delta HF,r (2)               -0.46146951 [mEh]      -0.28957649 [kcal/mol]      -1.21158803 [kJ/mol]

    Dispersion                     -8.63097873 [mEh]      -5.41602092 [kcal/mol]     -22.66063153 [kJ/mol]
      Disp20                       -9.37787488 [mEh]      -5.88470533 [kcal/mol]     -24.62160709 [kJ/mol]
      Exch-Disp20                   0.74689615 [mEh]       0.46868441 [kcal/mol]       1.96097557 [kJ/mol]
      Disp20 (SS)                  -4.68893744 [mEh]      -2.94235266 [kcal/mol]     -12.31080355 [kJ/mol]
      Disp20 (OS)                  -4.68893744 [mEh]      -2.94235266 [kcal/mol]     -12.31080355 [kJ/mol]
      Exch-Disp20 (SS)              0.49066086 [mEh]       0.30789434 [kcal/mol]       1.28822991 [kJ/mol]
      Exch-Disp20 (OS)              0.25623529 [mEh]       0.16079007 [kcal/mol]       0.67274566 [kJ/mol]

  Total HF                          4.01881070 [mEh]       2.52184179 [kcal/mol]      10.55138605 [kJ/mol]
  Total SAPT0                      -4.61216802 [mEh]      -2.89417913 [kcal/mol]     -12.10924548 [kJ/mol]

  Special recipe for scaled SAPT0 (see Manual):
    Electrostatics sSAPT0          -1.98377991 [mEh]      -1.24484069 [kcal/mol]      -5.20841344 [kJ/mol]
    Exchange sSAPT0                 6.59141256 [mEh]       4.13617383 [kcal/mol]      17.30575130 [kJ/mol]
    Induction sSAPT0               -0.58498250 [mEh]      -0.36708206 [kcal/mol]      -1.53587135 [kJ/mol]
    Dispersion sSAPT0              -8.62783115 [mEh]      -5.41404578 [kcal/mol]     -22.65236755 [kJ/mol]
  Total sSAPT0                     -4.60518100 [mEh]      -2.88979470 [kcal/mol]     -12.09090104 [kJ/mol]
  --------------------------------------------------------------------------------------------------------

*** Psi4 exiting successfully. Buy a developer a beer!
