                               Psi4 1.3.2 release

  ==> Input File <==

--------------------------------------------------------------------------
# Any line starting with the # character is a comment line
#! Sample  computation

memory 22 gb

molecule Dimer {

0 1
 C   -2.09610400   -1.23362700    0.31107400
 C   -1.78512600   -0.05066900   -0.59748900
 C   -1.88608100    1.27856600    0.14019100
 H   -1.40643000   -1.26494600    1.15604000
 H   -3.10729100   -1.15607300    0.71321200
 H   -2.01741400   -2.18170100   -0.22049300
 H   -2.47239700   -0.05105700   -1.44608800
 H   -0.78160500   -0.16348100   -1.01287100
 H   -1.65970000    2.12089200   -0.51328500
 H   -2.89132800    1.42249200    0.53906000
 H   -1.18926900    1.30968600    0.97927300

 --
0 1
 C    2.09580500   -1.23377600   -0.31107800
 C    1.78526900   -0.05073500    0.59752900
 C    1.88625600    1.27845500   -0.14022400
 H    1.40589100   -1.26504600   -1.15585600
 H    3.10689100   -1.15638500   -0.71350000
 H    2.01710900   -2.18181300    0.22055300
 H    2.47275700   -0.05120400    1.44595200
 H    0.78183200   -0.16335900    1.01317400
 H    1.66024100    2.12083900    0.51330400
 H    2.89140800    1.42218400   -0.53940400
 H    1.18919200    1.30968000   -0.97908300

units angstrom

no_reorient
symmetry c1
}

set globals{
  basis jun-cc-pVTZ
  scf_type DF
  freeze_core True
}

energy('sapt0')

--------------------------------------------------------------------------

  //              Dimer HF             //
    Molecular point group: c1
  Charge       = 0
  Multiplicity = 1
  Basis Set: JUN-CC-PVTZ
    Blend: JUN-CC-PVTZ
  Basis Set: (JUN-CC-PVTZ AUX)
    Blend: JUN-CC-PVTZ-JKFIT
  @DF-RHF Final Energy:  -236.61324246175872
    Total Energy =                       -236.6132424617587162
  //            Monomer A HF           //
    Molecular point group: c1
  Multiplicity = 1
  Basis Set: JUN-CC-PVTZ
    Blend: JUN-CC-PVTZ
  Basis Set: (JUN-CC-PVTZ AUX)
    Blend: JUN-CC-PVTZ-JKFIT
  @DF-RHF Final Energy:  -118.30810232588755
    Total Energy =                       -118.3081023258875462
  //            Monomer B HF           //
    Molecular point group: c1

    Geometry (in Angstrom), charge = 0, multiplicity = 1:

       Center              X                  Y                   Z               Mass
    ------------   -----------------  -----------------  -----------------  -----------------
      Gh(C)          -2.096105294928    -1.232830738463     0.311073728726    12.000000000000
      Gh(C)          -1.785127294928    -0.049872738463    -0.597489271274    12.000000000000
      Gh(C)          -1.886082294928     1.279362261537     0.140190728726    12.000000000000
      Gh(H)          -1.406431294928    -1.264149738463     1.156039728726     1.007825032230
      Gh(H)          -3.107292294928    -1.155276738463     0.713211728726     1.007825032230
      Gh(H)          -2.017415294928    -2.180904738463    -0.220493271274     1.007825032230
      Gh(H)          -2.472398294928    -0.050260738463    -1.446088271274     1.007825032230
      Gh(H)          -0.781606294928    -0.162684738463    -1.012871271274     1.007825032230
      Gh(H)          -1.659701294928     2.121688261537    -0.513285271274     1.007825032230
      Gh(H)          -2.891329294928     1.423288261537     0.539059728726     1.007825032230
      Gh(H)          -1.189270294928     1.310482261537     0.979272728726     1.007825032230
         C            2.095803705072    -1.232979738463    -0.311078271274    12.000000000000
         C            1.785267705072    -0.049938738463     0.597528728726    12.000000000000
         C            1.886254705072     1.279251261537    -0.140224271274    12.000000000000
         H            1.405889705072    -1.264249738463    -1.155856271274     1.007825032230
         H            3.106889705072    -1.155588738463    -0.713500271274     1.007825032230
         H            2.017107705072    -2.181016738463     0.220552728726     1.007825032230
         H            2.472755705072    -0.050407738463     1.445951728726     1.007825032230
         H            0.781830705072    -0.162562738463     1.013173728726     1.007825032230
         H            1.660239705072     2.121635261537     0.513303728726     1.007825032230
         H            2.891406705072     1.422980261537    -0.539404271274     1.007825032230
         H            1.189190705072     1.310476261537    -0.979083271274     1.007825032230

  Charge       = 0
  Multiplicity = 1
  Basis Set: JUN-CC-PVTZ
    Blend: JUN-CC-PVTZ
  Basis Set: (JUN-CC-PVTZ AUX)
    Blend: JUN-CC-PVTZ-JKFIT

    Orbital Energies [Eh]
    ---------------------

    Doubly Occupied:

       1A    -11.215581     2A    -11.207859     3A    -11.207815
       4A     -1.054042     5A     -0.924836     6A     -0.799824
       7A     -0.624736     8A     -0.598261     9A     -0.549393
      10A     -0.530202    11A     -0.475536    12A     -0.474960
      13A     -0.467987

  @DF-RHF Final Energy:  -118.30810234289896

   => Energetics <=

    Nuclear Repulsion Energy =             82.8172427563989686
    One-Electron Energy =                -321.9886255163949045
    Two-Electron Energy =                 120.8632804170969735
    Total Energy =                       -118.3081023428989624

  Dipole Moment: [D]
     X:    -0.0202      Y:    -0.0071      Z:     0.0809     Total:     0.0837

    SAPT Results
  --------------------------------------------------------------------------------------------------------
    Electrostatics                 -1.39768997 [mEh]      -0.87706370 [kcal/mol]      -3.66963451 [kJ/mol]
      Elst10,r                     -1.39768997 [mEh]      -0.87706370 [kcal/mol]      -3.66963451 [kJ/mol]

    Exchange                        4.79063795 [mEh]       3.00617070 [kcal/mol]      12.57781821 [kJ/mol]
      Exch10                        4.79063795 [mEh]       3.00617070 [kcal/mol]      12.57781821 [kJ/mol]
      Exch10(S^2)                   4.78142672 [mEh]       3.00039057 [kcal/mol]      12.55363413 [kJ/mol]

    Induction                      -0.43074096 [mEh]      -0.27029403 [kcal/mol]      -1.13091023 [kJ/mol]
      Ind20,r                      -0.73907634 [mEh]      -0.46377741 [kcal/mol]      -1.94044467 [kJ/mol]
      Exch-Ind20,r                  0.64151356 [mEh]       0.40255583 [kcal/mol]       1.68429361 [kJ/mol]
      delta HF,r (2)               -0.33317817 [mEh]      -0.20907246 [kcal/mol]      -0.87475917 [kJ/mol]

    Dispersion                     -6.09689500 [mEh]      -3.82585937 [kcal/mol]     -16.00739562 [kJ/mol]
      Disp20                       -6.61950336 [mEh]      -4.15380107 [kcal/mol]     -17.37950368 [kJ/mol]
      Exch-Disp20                   0.52260836 [mEh]       0.32794170 [kcal/mol]       1.37210807 [kJ/mol]
      Disp20 (SS)                  -3.30975168 [mEh]      -2.07690054 [kcal/mol]      -8.68975184 [kJ/mol]
      Disp20 (OS)                  -3.30975168 [mEh]      -2.07690054 [kcal/mol]      -8.68975184 [kJ/mol]
      Exch-Disp20 (SS)              0.34260787 [mEh]       0.21498968 [kcal/mol]       0.89951683 [kJ/mol]
      Exch-Disp20 (OS)              0.18000050 [mEh]       0.11295202 [kcal/mol]       0.47259124 [kJ/mol]

  Total HF                          2.96220703 [mEh]       1.85881297 [kcal/mol]       7.77727348 [kJ/mol]
  Total SAPT0                      -3.13468797 [mEh]      -1.96704640 [kcal/mol]      -8.23012214 [kJ/mol]

  Special recipe for scaled SAPT0 (see Manual):
    Electrostatics sSAPT0          -1.39768997 [mEh]      -0.87706370 [kcal/mol]      -3.66963451 [kJ/mol]
    Exchange sSAPT0                 4.79063795 [mEh]       3.00617070 [kcal/mol]      12.57781821 [kJ/mol]
    Induction sSAPT0               -0.42702626 [mEh]      -0.26796302 [kcal/mol]      -1.12115728 [kJ/mol]
    Dispersion sSAPT0              -6.09386882 [mEh]      -3.82396042 [kcal/mol]     -15.99945039 [kJ/mol]
  Total sSAPT0                     -3.12794710 [mEh]      -1.96281644 [kcal/mol]      -8.21242397 [kJ/mol]
  --------------------------------------------------------------------------------------------------------

*** Psi4 exiting successfully. Buy a developer a beer!
