                               Psi4 1.3.2 release

  ==> Input File <==

--------------------------------------------------------------------------
# Any line starting with the # character is a comment line
#! Sample  computation

memory 22 gb

molecule Dimer {
0 1
 C -1.542563   -2.528729   -0.309312
 H -2.518104   -2.551806   -0.796834
 H -0.781277   -2.567376   -1.089677
 H -1.447859   -3.430724    0.294902
 C -1.390535   -1.268351    0.533209
 H -0.419745   -1.275477    1.036011
 H -2.147740   -1.258123    1.321924
 C -1.517140    0.004285   -0.294376
 H -0.756563    0.001108   -1.082873
 H -2.486248    0.007499   -0.804571
 C -1.381271    1.276955    0.531685
 H -0.410382    1.277661    1.034340
 H -2.138410    1.273176    1.320521
 C -1.524352    2.537316   -0.312419
 H -2.500087    2.567161   -0.799185
 H -1.422249    3.439406    0.290446
 H -0.763488    2.569045   -1.093519

 --
0 1
 C 2.359481    1.256224   -0.275270
 C 2.449426   -0.009309    0.568370
 C 2.344975   -1.268038   -0.283744
 H 3.168908    1.290844   -1.005954
 H 1.416750    1.287362   -0.823741
 H 2.420235    2.155973    0.336922
 H 1.654736   -0.007228    1.317651
 H 3.392113   -0.016578    1.119503
 H 2.394161   -2.172537    0.322458
 H 1.402495   -1.283916   -0.833273
 H 3.154635   -1.307590   -1.013919

units angstrom

no_reorient
symmetry c1
}

set globals{
  basis jun-cc-pvtz
}

energy('sapt0')

--------------------------------------------------------------------------

  //              Dimer HF             //
    Molecular point group: c1
  Charge       = 0
  Multiplicity = 1
  Basis Set: JUN-CC-PVTZ
    Blend: JUN-CC-PVTZ
  Basis Set: (JUN-CC-PVTZ AUX)
    Blend: JUN-CC-PVTZ-JKFIT
  @DF-RHF Final Energy:  -314.70802071092135
    Total Energy =                       -314.7080207109213461
  //            Monomer A HF           //
    Molecular point group: c1
  Multiplicity = 1
  Basis Set: JUN-CC-PVTZ
    Blend: JUN-CC-PVTZ
  Basis Set: (JUN-CC-PVTZ AUX)
    Blend: JUN-CC-PVTZ-JKFIT
  @DF-RHF Final Energy:  -196.40372572689833
    Total Energy =                       -196.4037257268983296
  //            Monomer B HF           //
    Molecular point group: c1

    Geometry (in Angstrom), charge = 0, multiplicity = 1:

       Center              X                  Y                   Z               Mass
    ------------   -----------------  -----------------  -----------------  -----------------
      Gh(C)          -1.532211586300    -2.528747073986    -0.317416781670    12.000000000000
      Gh(H)          -2.507752586300    -2.551824073986    -0.804938781670     1.007825032230
      Gh(H)          -0.770925586300    -2.567394073986    -1.097781781670     1.007825032230
      Gh(H)          -1.437507586300    -3.430742073986     0.286797218330     1.007825032230
      Gh(C)          -1.380183586300    -1.268369073986     0.525104218330    12.000000000000
      Gh(H)          -0.409393586300    -1.275495073986     1.027906218330     1.007825032230
      Gh(H)          -2.137388586300    -1.258141073986     1.313819218330     1.007825032230
      Gh(C)          -1.506788586300     0.004266926014    -0.302480781670    12.000000000000
      Gh(H)          -0.746211586300     0.001089926014    -1.090977781670     1.007825032230
      Gh(H)          -2.475896586300     0.007480926014    -0.812675781670     1.007825032230
      Gh(C)          -1.370919586300     1.276936926014     0.523580218330    12.000000000000
      Gh(H)          -0.400030586300     1.277642926014     1.026235218330     1.007825032230
      Gh(H)          -2.128058586300     1.273157926014     1.312416218330     1.007825032230
      Gh(C)          -1.514000586300     2.537297926014    -0.320523781670    12.000000000000
      Gh(H)          -2.489735586300     2.567142926014    -0.807289781670     1.007825032230
      Gh(H)          -1.411897586300     3.439387926014     0.282341218330     1.007825032230
      Gh(H)          -0.753136586300     2.569026926014    -1.101623781670     1.007825032230
         C            2.369832413700     1.256205926014    -0.283374781670    12.000000000000
         C            2.459777413700    -0.009327073986     0.560265218330    12.000000000000
         C            2.355326413700    -1.268056073986    -0.291848781670    12.000000000000
         H            3.179259413700     1.290825926014    -1.014058781670     1.007825032230
         H            1.427101413700     1.287343926014    -0.831845781670     1.007825032230
         H            2.430586413700     2.155954926014     0.328817218330     1.007825032230
         H            1.665087413700    -0.007246073986     1.309546218330     1.007825032230
         H            3.402464413700    -0.016596073986     1.111398218330     1.007825032230
         H            2.404512413700    -2.172555073986     0.314353218330     1.007825032230
         H            1.412846413700    -1.283934073986    -0.841377781670     1.007825032230
         H            3.164986413700    -1.307608073986    -1.022023781670     1.007825032230

  Charge       = 0
  Multiplicity = 1
  Basis Set: JUN-CC-PVTZ
    Blend: JUN-CC-PVTZ
  Basis Set: (JUN-CC-PVTZ AUX)
    Blend: JUN-CC-PVTZ-JKFIT

    Orbital Energies [Eh]
    ---------------------

    Doubly Occupied:

       1A    -11.215601     2A    -11.207872     3A    -11.207835
       4A     -1.054119     5A     -0.924673     6A     -0.799869
       7A     -0.624774     8A     -0.598419     9A     -0.549103
      10A     -0.530154    11A     -0.475673    12A     -0.474902
      13A     -0.468007

  @DF-RHF Final Energy:  -118.30808216881920

   => Energetics <=

    Nuclear Repulsion Energy =             82.8301506920117419
    One-Electron Energy =                -322.0144628186678801
    Two-Electron Energy =                 120.8762299578369550
    Total Energy =                       -118.3080821688191975

  Dipole Moment: [D]
     X:     0.0100      Y:    -0.0003      Z:     0.0832     Total:     0.0838

    SAPT Results
  --------------------------------------------------------------------------------------------------------
    Electrostatics                 -1.81436366 [mEh]      -1.13853039 [kcal/mol]      -4.76361114 [kJ/mol]
      Elst10,r                     -1.81436366 [mEh]      -1.13853039 [kcal/mol]      -4.76361114 [kJ/mol]

    Exchange                        6.14993044 [mEh]       3.85913961 [kcal/mol]      16.14664014 [kJ/mol]
      Exch10                        6.14993044 [mEh]       3.85913961 [kcal/mol]      16.14664014 [kJ/mol]
      Exch10(S^2)                   6.14162670 [mEh]       3.85392894 [kcal/mol]      16.12483867 [kJ/mol]

    Induction                      -0.54838198 [mEh]      -0.34411489 [kcal/mol]      -1.43977669 [kJ/mol]
      Ind20,r                      -0.94469397 [mEh]      -0.59280442 [kcal/mol]      -2.48029368 [kJ/mol]
      Exch-Ind20,r                  0.82420674 [mEh]       0.51719753 [kcal/mol]       2.16395449 [kJ/mol]
      delta HF,r (2)               -0.42789474 [mEh]      -0.26850801 [kcal/mol]      -1.12343750 [kJ/mol]

    Dispersion                     -7.99562370 [mEh]      -5.01732962 [kcal/mol]     -20.99250714 [kJ/mol]
      Disp20                       -8.68282031 [mEh]      -5.44855201 [kcal/mol]     -22.79674159 [kJ/mol]
      Exch-Disp20                   0.68719661 [mEh]       0.43122238 [kcal/mol]       1.80423445 [kJ/mol]
      Disp20 (SS)                  -4.34141016 [mEh]      -2.72427600 [kcal/mol]     -11.39837079 [kJ/mol]
      Disp20 (OS)                  -4.34141016 [mEh]      -2.72427600 [kcal/mol]     -11.39837079 [kJ/mol]
      Exch-Disp20 (SS)              0.45201908 [mEh]       0.28364626 [kcal/mol]       1.18677594 [kJ/mol]
      Exch-Disp20 (OS)              0.23517753 [mEh]       0.14757613 [kcal/mol]       0.61745851 [kJ/mol]

  Total HF                          3.78718480 [mEh]       2.37649434 [kcal/mol]       9.94325231 [kJ/mol]
  Total SAPT0                      -4.20843891 [mEh]      -2.64083528 [kcal/mol]     -11.04925483 [kJ/mol]

  Special recipe for scaled SAPT0 (see Manual):
    Electrostatics sSAPT0          -1.81436366 [mEh]      -1.13853039 [kcal/mol]      -4.76361114 [kJ/mol]
    Exchange sSAPT0                 6.14993044 [mEh]       3.85913961 [kcal/mol]      16.14664014 [kJ/mol]
    Induction sSAPT0               -0.54503437 [mEh]      -0.34201423 [kcal/mol]      -1.43098754 [kJ/mol]
    Dispersion sSAPT0              -7.99283258 [mEh]      -5.01557816 [kcal/mol]     -20.98517904 [kJ/mol]
  Total sSAPT0                     -4.20230017 [mEh]      -2.63698317 [kcal/mol]     -11.03313758 [kJ/mol]
  --------------------------------------------------------------------------------------------------------

*** Psi4 exiting successfully. Buy a developer a beer!
