                               Psi4 1.3.2 release

  ==> Input File <==

--------------------------------------------------------------------------
# Any line starting with the # character is a comment line
#! Sample  computation

memory 22 gb

molecule Dimer {
0 1
 C  -2.296911   -0.204261   -0.063240
 O  -1.715732   -0.510426   -1.092259
 N  -1.753634    0.523420    0.942194
 H  -2.302716    0.772531    1.744303
 H  -0.814718    0.884401    0.842322
 H  -3.333672   -0.509503    0.142565

 --
0 1
 C   1.083500    1.843988   -0.306837
 C   1.760718    0.774008    0.127673
 C   1.671473   -0.593080   -0.472790
 C   1.311762   -1.652862    0.568448
 H   1.201282    2.812261    0.161129
 H   0.410890    1.766215   -1.152550
 H   2.429543    0.888782    0.977549
 H   0.929941   -0.590996   -1.272259
 H   2.639217   -0.845050   -0.915642
 H   2.036431   -1.660703    1.383948
 H   0.326130   -1.459324    0.990573
 H   1.295714   -2.645904    0.121252

units angstrom

no_reorient
symmetry c1
}

set globals{
  basis jun-cc-pvtz
}

energy('sapt0')

--------------------------------------------------------------------------

  //              Dimer HF             //
    Molecular point group: c1
  Charge       = 0
  Multiplicity = 1
  Basis Set: JUN-CC-PVTZ
    Blend: JUN-CC-PVTZ
  Basis Set: (JUN-CC-PVTZ AUX)
    Blend: JUN-CC-PVTZ-JKFIT
  @DF-RHF Final Energy:  -325.16846120165445
    Total Energy =                       -325.1684612016544520
  //            Monomer A HF           //
    Molecular point group: c1
  Multiplicity = 1
  Basis Set: JUN-CC-PVTZ
    Blend: JUN-CC-PVTZ
  Basis Set: (JUN-CC-PVTZ AUX)
    Blend: JUN-CC-PVTZ-JKFIT
  @DF-RHF Final Energy:  -169.00364714903731
    Total Energy =                       -169.0036471490373060
  //            Monomer B HF           //
    Molecular point group: c1

    Geometry (in Angstrom), charge = 0, multiplicity = 1:

       Center              X                  Y                   Z               Mass
    ------------   -----------------  -----------------  -----------------  -----------------
      Gh(C)          -2.249653242379    -0.210067050128    -0.033649949284    12.000000000000
      Gh(O)          -1.668474242379    -0.516232050128    -1.062668949284    15.994914619570
      Gh(N)          -1.706376242379     0.517613949872     0.971784050716    14.003074004430
      Gh(H)          -2.255458242379     0.766724949872     1.773893050716     1.007825032230
      Gh(H)          -0.767460242379     0.878594949872     0.871912050716     1.007825032230
      Gh(H)          -3.286414242379    -0.515309050128     0.172155050716     1.007825032230
         C            1.130757757621     1.838181949872    -0.277246949284    12.000000000000
         C            1.807975757621     0.768201949872     0.157263050716    12.000000000000
         C            1.718730757621    -0.598886050128    -0.443199949284    12.000000000000
         C            1.359019757621    -1.658668050128     0.598038050716    12.000000000000
         H            1.248539757621     2.806454949872     0.190719050716     1.007825032230
         H            0.458147757621     1.760408949872    -1.122959949284     1.007825032230
         H            2.476800757621     0.882975949872     1.007139050716     1.007825032230
         H            0.977198757621    -0.596802050128    -1.242668949284     1.007825032230
         H            2.686474757621    -0.850856050128    -0.886051949284     1.007825032230
         H            2.083688757621    -1.666509050128     1.413538050716     1.007825032230
         H            0.373387757621    -1.465130050128     1.020163050716     1.007825032230
         H            1.342971757621    -2.651710050128     0.150842050716     1.007825032230

  Charge       = 0
  Multiplicity = 1
  Basis Set: JUN-CC-PVTZ
    Blend: JUN-CC-PVTZ
  Basis Set: (JUN-CC-PVTZ AUX)
    Blend: JUN-CC-PVTZ-JKFIT

    Orbital Energies [Eh]
    ---------------------

    Doubly Occupied:

       1A    -11.231687     2A    -11.224916     3A    -11.217828
       4A    -11.214558     5A     -1.080685     6A     -0.988306
       7A     -0.855650     8A     -0.755767     9A     -0.642003
      10A     -0.606608    11A     -0.588028    12A     -0.533724
      13A     -0.516858    14A     -0.488568    15A     -0.477078
      16A     -0.356427

  @DF-RHF Final Energy:  -156.16427480082586

   => Energetics <=

    Nuclear Repulsion Energy =            117.3124275001571419
    One-Electron Energy =                -441.3960171685071145
    Two-Electron Energy =                 167.9193148675241218
    Total Energy =                       -156.1642748008258650

  Dipole Moment: [D]
     X:     0.1310      Y:    -0.4281      Z:    -0.0224     Total:     0.4482

    SAPT Results
  --------------------------------------------------------------------------------------------------------
    Electrostatics                 -9.66995401 [mEh]      -6.06798775 [kcal/mol]     -25.38846075 [kJ/mol]
      Elst10,r                     -9.66995401 [mEh]      -6.06798775 [kcal/mol]     -25.38846075 [kJ/mol]

    Exchange                       12.73890113 [mEh]       7.99378115 [kcal/mol]      33.44598032 [kJ/mol]
      Exch10                       12.73890113 [mEh]       7.99378115 [kcal/mol]      33.44598032 [kJ/mol]
      Exch10(S^2)                  12.66773160 [mEh]       7.94912159 [kcal/mol]      33.25912473 [kJ/mol]

    Induction                      -3.60819892 [mEh]      -2.26417900 [kcal/mol]      -9.47332495 [kJ/mol]
      Ind20,r                      -6.35115924 [mEh]      -3.98541259 [kcal/mol]     -16.67496629 [kJ/mol]
      Exch-Ind20,r                  4.28136075 [mEh]       2.68659443 [kcal/mol]      11.24071111 [kJ/mol]
      delta HF,r (2)               -1.53840043 [mEh]      -0.96536085 [kcal/mol]      -4.03906978 [kJ/mol]

    Dispersion                     -8.21496875 [mEh]      -5.15497072 [kcal/mol]     -21.56839749 [kJ/mol]
      Disp20                       -9.47378032 [mEh]      -5.94488690 [kcal/mol]     -24.87340680 [kJ/mol]
      Exch-Disp20                   1.25881157 [mEh]       0.78991618 [kcal/mol]       3.30500931 [kJ/mol]
      Disp20 (SS)                  -4.73689016 [mEh]      -2.97244345 [kcal/mol]     -12.43670340 [kJ/mol]
      Disp20 (OS)                  -4.73689016 [mEh]      -2.97244345 [kcal/mol]     -12.43670340 [kJ/mol]
      Exch-Disp20 (SS)              0.81669547 [mEh]       0.51248415 [kcal/mol]       2.14423367 [kJ/mol]
      Exch-Disp20 (OS)              0.44211609 [mEh]       0.27743204 [kcal/mol]       1.16077564 [kJ/mol]

  Total HF                         -0.53925179 [mEh]      -0.33838561 [kcal/mol]      -1.41580538 [kJ/mol]
  Total SAPT0                      -8.75422054 [mEh]      -5.49335633 [kcal/mol]     -22.98420287 [kJ/mol]

  Special recipe for scaled SAPT0 (see Manual):
    Electrostatics sSAPT0          -9.66995401 [mEh]      -6.06798775 [kcal/mol]     -25.38846075 [kJ/mol]
    Exchange sSAPT0                12.73890113 [mEh]       7.99378115 [kcal/mol]      33.44598032 [kJ/mol]
    Induction sSAPT0               -3.53563244 [mEh]      -2.21864285 [kcal/mol]      -9.28280170 [kJ/mol]
    Dispersion sSAPT0              -8.19363266 [mEh]      -5.14158212 [kcal/mol]     -21.51237958 [kJ/mol]
  Total sSAPT0                     -8.66031798 [mEh]      -5.43443158 [kcal/mol]     -22.73766171 [kJ/mol]
  --------------------------------------------------------------------------------------------------------

*** Psi4 exiting successfully. Buy a developer a beer!
