                               Psi4 1.3.2 release

  ==> Input File <==

--------------------------------------------------------------------------
# Any line starting with the # character is a comment line
#! Sample  computation

memory 22 gb

molecule Dimer {
0 1
 C   2.838629   -0.371134    0.319508
 C   1.349002   -0.408943    0.037012
 O   0.851067    0.097578   -0.962044
 N   0.597725   -1.053497    0.972380
 H  -0.383369   -1.203348    0.783256
 H   1.028401   -1.526162    1.745542
 C   3.519076    0.797182   -0.375599
 H   3.133861    1.744885   -0.002819
 H   4.594215    0.770663   -0.206090
 H   3.328813    0.761023   -1.445301
 H   3.005880   -0.341259    1.397764
 H   3.252975   -1.317828   -0.037172

 --
0 1
 C   -2.384344   -1.579023   -0.540369
 C   -2.839613   -0.437537   -0.009427
 C   -2.411251    0.930561   -0.436348
 C   -1.878420    1.754714    0.735790
 H   -2.742689   -2.540634   -0.197704
 H   -1.652677   -1.562616   -1.339143
 H   -3.573562   -0.489558    0.791503
 H   -1.645293    0.845912   -1.207610
 H   -3.271108    1.447185   -0.872291
 H   -2.624606    1.835966    1.527682
 H   -0.985016    1.292627    1.154748
 H   -1.616916    2.762077    0.413925

units angstrom

no_reorient
symmetry c1
}

set globals{
  basis jun-cc-pvtz
}

energy('sapt0')

--------------------------------------------------------------------------

  //              Dimer HF             //
    Molecular point group: c1
  Charge       = 0
  Multiplicity = 1
  Basis Set: JUN-CC-PVTZ
    Blend: JUN-CC-PVTZ
  Basis Set: (JUN-CC-PVTZ AUX)
    Blend: JUN-CC-PVTZ-JKFIT
  @DF-RHF Final Energy:  -403.27431008274141
    Total Energy =                       -403.2743100827414082
  //            Monomer A HF           //
    Molecular point group: c1
  Multiplicity = 1
  Basis Set: JUN-CC-PVTZ
    Blend: JUN-CC-PVTZ
  Basis Set: (JUN-CC-PVTZ AUX)
    Blend: JUN-CC-PVTZ-JKFIT
  @DF-RHF Final Energy:  -247.10991203826151
    Total Energy =                       -247.1099120382614842
  //            Monomer B HF           //
    Molecular point group: c1

    Geometry (in Angstrom), charge = 0, multiplicity = 1:

       Center              X                  Y                   Z               Mass
    ------------   -----------------  -----------------  -----------------  -----------------
      Gh(C)           2.837487337899    -0.352055914583     0.338706309643    12.000000000000
      Gh(C)           1.347860337899    -0.389864914583     0.056210309643    12.000000000000
      Gh(O)           0.849925337899     0.116656085417    -0.942845690357    15.994914619570
      Gh(N)           0.596583337899    -1.034418914583     0.991578309643    14.003074004430
      Gh(H)          -0.384510662101    -1.184269914583     0.802454309643     1.007825032230
      Gh(H)           1.027259337899    -1.507083914583     1.764740309643     1.007825032230
      Gh(C)           3.517934337899     0.816260085417    -0.356400690357    12.000000000000
      Gh(H)           3.132719337899     1.763963085417     0.016379309643     1.007825032230
      Gh(H)           4.593073337899     0.789741085417    -0.186891690357     1.007825032230
      Gh(H)           3.327671337899     0.780101085417    -1.426102690357     1.007825032230
      Gh(H)           3.004738337899    -0.322180914583     1.416962309643     1.007825032230
      Gh(H)           3.251833337899    -1.298749914583    -0.017973690357     1.007825032230
         C           -2.385485662101    -1.559944914583    -0.521170690357    12.000000000000
         C           -2.840754662101    -0.418458914583     0.009771309643    12.000000000000
         C           -2.412392662101     0.949639085417    -0.417149690357    12.000000000000
         C           -1.879561662101     1.773792085417     0.754988309643    12.000000000000
         H           -2.743830662101    -2.521555914583    -0.178505690357     1.007825032230
         H           -1.653818662101    -1.543537914583    -1.319944690357     1.007825032230
         H           -3.574703662101    -0.470479914583     0.810701309643     1.007825032230
         H           -1.646434662101     0.864990085417    -1.188411690357     1.007825032230
         H           -3.272249662101     1.466263085417    -0.853092690357     1.007825032230
         H           -2.625747662101     1.855044085417     1.546880309643     1.007825032230
         H           -0.986157662101     1.311705085417     1.173946309643     1.007825032230
         H           -1.618057662101     2.781155085417     0.433123309643     1.007825032230

  Charge       = 0
  Multiplicity = 1
  Basis Set: JUN-CC-PVTZ
    Blend: JUN-CC-PVTZ
  Basis Set: (JUN-CC-PVTZ AUX)
    Blend: JUN-CC-PVTZ-JKFIT

    Orbital Energies [Eh]
    ---------------------

    Doubly Occupied:

       1A    -11.231656     2A    -11.224883     3A    -11.217837
       4A    -11.214580     5A     -1.080729     6A     -0.988235
       7A     -0.855618     8A     -0.755636     9A     -0.642325
      10A     -0.606507    11A     -0.587716    12A     -0.533861
      13A     -0.516876    14A     -0.488508    15A     -0.477019
      16A     -0.356471

  @DF-RHF Final Energy:  -156.16428624402354

   => Energetics <=

    Nuclear Repulsion Energy =            117.3317582564798869
    One-Electron Energy =                -441.4351716676648039
    Two-Electron Energy =                 167.9391271671613879
    Total Energy =                       -156.1642862440235433

  Dipole Moment: [D]
     X:    -0.0293      Y:     0.4452      Z:     0.0274     Total:     0.4470

    SAPT Results
  --------------------------------------------------------------------------------------------------------
    Electrostatics                 -9.64209651 [mEh]      -6.05050690 [kcal/mol]     -25.31532089 [kJ/mol]
      Elst10,r                     -9.64209651 [mEh]      -6.05050690 [kcal/mol]     -25.31532089 [kJ/mol]

    Exchange                       13.04793535 [mEh]       8.18770305 [kcal/mol]      34.25734955 [kJ/mol]
      Exch10                       13.04793535 [mEh]       8.18770305 [kcal/mol]      34.25734955 [kJ/mol]
      Exch10(S^2)                  12.97904966 [mEh]       8.14447662 [kcal/mol]      34.07649018 [kJ/mol]

    Induction                      -3.51763930 [mEh]      -2.20735199 [kcal/mol]      -9.23556072 [kJ/mol]
      Ind20,r                      -6.25925223 [mEh]      -3.92774007 [kcal/mol]     -16.43366447 [kJ/mol]
      Exch-Ind20,r                  4.23870608 [mEh]       2.65982822 [kcal/mol]      11.12872127 [kJ/mol]
      delta HF,r (2)               -1.49709315 [mEh]      -0.93944013 [kcal/mol]      -3.93061752 [kJ/mol]

    Dispersion                     -8.81664858 [mEh]      -5.53253051 [kcal/mol]     -23.14810766 [kJ/mol]
      Disp20                      -10.15668088 [mEh]      -6.37341348 [kcal/mol]     -26.66636198 [kJ/mol]
      Exch-Disp20                   1.34003230 [mEh]       0.84088296 [kcal/mol]       3.51825432 [kJ/mol]
      Disp20 (SS)                  -5.07834044 [mEh]      -3.18670674 [kcal/mol]     -13.33318099 [kJ/mol]
      Disp20 (OS)                  -5.07834044 [mEh]      -3.18670674 [kcal/mol]     -13.33318099 [kJ/mol]
      Exch-Disp20 (SS)              0.86661891 [mEh]       0.54381158 [kcal/mol]       2.27530764 [kJ/mol]
      Exch-Disp20 (OS)              0.47341339 [mEh]       0.29707139 [kcal/mol]       1.24294669 [kJ/mol]

  Total HF                         -0.11180046 [mEh]      -0.07015585 [kcal/mol]      -0.29353206 [kJ/mol]
  Total SAPT0                      -8.92844904 [mEh]      -5.60268636 [kcal/mol]     -23.44163972 [kJ/mol]

  Special recipe for scaled SAPT0 (see Manual):
    Electrostatics sSAPT0          -9.64209651 [mEh]      -6.05050690 [kcal/mol]     -25.31532089 [kJ/mol]
    Exchange sSAPT0                13.04793535 [mEh]       8.18770305 [kcal/mol]      34.25734955 [kJ/mol]
    Induction sSAPT0               -3.44979027 [mEh]      -2.16477608 [kcal/mol]      -9.05742310 [kJ/mol]
    Dispersion sSAPT0              -8.79519866 [mEh]      -5.51907048 [kcal/mol]     -23.09179091 [kJ/mol]
  Total sSAPT0                     -8.83915008 [mEh]      -5.54665042 [kcal/mol]     -23.20718535 [kJ/mol]
  --------------------------------------------------------------------------------------------------------

*** Psi4 exiting successfully. Buy a developer a beer!
