                               Psi4 1.3.2 release

  ==> Input File <==

--------------------------------------------------------------------------
# Any line starting with the # character is a comment line
#! Sample  computation

memory 22 gb

molecule Dimer {
0 1
 C  3.279916    0.273000    0.051745
 C  1.817987   -0.065306   -0.120188
 O  1.204475    0.211627   -1.144377
 N  1.224402   -0.686179    0.935094
 H  3.674000    0.002493    1.028765
 H  3.845113   -0.244177   -0.720979
 H  3.405445    1.341958   -0.105589
 H  0.257568   -0.966632    0.848783
 H  1.747367   -0.952597    1.747874

 --
0 1
 C   -1.746020   -1.774651   -0.252082
 C   -2.319758   -0.637298    0.159603
 C   -2.104968    0.701683   -0.471719
 C   -1.625027    1.741041    0.541345
 H   -1.951345   -2.717131    0.237919
 H   -1.070156   -1.776636   -1.098737
 H   -2.993097   -0.670272    1.013086
 H   -1.378542    0.608879   -1.279453
 H   -3.049643    1.039863   -0.906997
 H   -2.330149    1.835548    1.368590
 H   -0.655321    1.458916    0.950472
 H   -1.520631    2.719210    0.073407

units angstrom

no_reorient
symmetry c1
}

set globals{
  basis jun-cc-pvtz
}

energy('sapt0')

--------------------------------------------------------------------------

  //              Dimer HF             //
    Molecular point group: c1
  Charge       = 0
  Multiplicity = 1
  Basis Set: JUN-CC-PVTZ
    Blend: JUN-CC-PVTZ
  Basis Set: (JUN-CC-PVTZ AUX)
    Blend: JUN-CC-PVTZ-JKFIT
  @DF-RHF Final Energy:  -364.22651447619876
    Total Energy =                       -364.2265144761987585
  //            Monomer A HF           //
    Molecular point group: c1
  Multiplicity = 1
  Basis Set: JUN-CC-PVTZ
    Blend: JUN-CC-PVTZ
  Basis Set: (JUN-CC-PVTZ AUX)
    Blend: JUN-CC-PVTZ-JKFIT
  @DF-RHF Final Energy:  -208.06198389246808
    Total Energy =                       -208.0619838924680778
  //            Monomer B HF           //
    Molecular point group: c1

    Geometry (in Angstrom), charge = 0, multiplicity = 1:

       Center              X                  Y                   Z               Mass
    ------------   -----------------  -----------------  -----------------  -----------------
      Gh(C)           3.262529042782     0.287504536381     0.078884321938    12.000000000000
      Gh(C)           1.800600042782    -0.050801463619    -0.093048678062    12.000000000000
      Gh(O)           1.187088042782     0.226131536381    -1.117237678062    15.994914619570
      Gh(N)           1.207015042782    -0.671674463619     0.962233321938    14.003074004430
      Gh(H)           3.656613042782     0.016997536381     1.055904321938     1.007825032230
      Gh(H)           3.827726042782    -0.229672463619    -0.693839678062     1.007825032230
      Gh(H)           3.388058042782     1.356462536381    -0.078449678062     1.007825032230
      Gh(H)           0.240181042782    -0.952127463619     0.875922321938     1.007825032230
      Gh(H)           1.729980042782    -0.938092463619     1.775013321938     1.007825032230
         C           -1.763406957218    -1.760146463619    -0.224942678062    12.000000000000
         C           -2.337144957218    -0.622793463619     0.186742321938    12.000000000000
         C           -2.122354957218     0.716187536381    -0.444579678062    12.000000000000
         C           -1.642413957218     1.755545536381     0.568484321938    12.000000000000
         H           -1.968731957218    -2.702626463619     0.265058321938     1.007825032230
         H           -1.087542957218    -1.762131463619    -1.071597678062     1.007825032230
         H           -3.010483957218    -0.655767463619     1.040225321938     1.007825032230
         H           -1.395928957218     0.623383536381    -1.252313678062     1.007825032230
         H           -3.067029957218     1.054367536381    -0.879857678062     1.007825032230
         H           -2.347535957218     1.850052536381     1.395729321938     1.007825032230
         H           -0.672707957218     1.473420536381     0.977611321938     1.007825032230
         H           -1.538017957218     2.733714536381     0.100546321938     1.007825032230

  Charge       = 0
  Multiplicity = 1
  Basis Set: JUN-CC-PVTZ
    Blend: JUN-CC-PVTZ
  Basis Set: (JUN-CC-PVTZ AUX)
    Blend: JUN-CC-PVTZ-JKFIT

    Orbital Energies [Eh]
    ---------------------

    Doubly Occupied:

       1A    -11.231668     2A    -11.224888     3A    -11.217840
       4A    -11.214569     5A     -1.080723     6A     -0.988239
       7A     -0.855610     8A     -0.755657     9A     -0.642287
      10A     -0.606515    11A     -0.587739    12A     -0.533853
      13A     -0.516858    14A     -0.488523    15A     -0.477029
      16A     -0.356463

  @DF-RHF Final Energy:  -156.16427951896026

   => Energetics <=

    Nuclear Repulsion Energy =            117.3296437600604918
    One-Electron Energy =                -441.4309251563706766
    Two-Electron Energy =                 167.9370018773499282
    Total Energy =                       -156.1642795189602566

  Dipole Moment: [D]
     X:    -0.0878      Y:     0.4373      Z:    -0.0286     Total:     0.4470

    SAPT Results
  --------------------------------------------------------------------------------------------------------
    Electrostatics                 -9.71152203 [mEh]      -6.09407208 [kcal/mol]     -25.49759757 [kJ/mol]
      Elst10,r                     -9.71152203 [mEh]      -6.09407208 [kcal/mol]     -25.49759757 [kJ/mol]

    Exchange                       13.04178421 [mEh]       8.18384315 [kcal/mol]      34.24119972 [kJ/mol]
      Exch10                       13.04178421 [mEh]       8.18384315 [kcal/mol]      34.24119972 [kJ/mol]
      Exch10(S^2)                  12.97209870 [mEh]       8.14011483 [kcal/mol]      34.05824044 [kJ/mol]

    Induction                      -3.58132695 [mEh]      -2.24731659 [kcal/mol]      -9.40277262 [kJ/mol]
      Ind20,r                      -6.33211950 [mEh]      -3.97346498 [kcal/mol]     -16.62497747 [kJ/mol]
      Exch-Ind20,r                  4.25811007 [mEh]       2.67200441 [kcal/mol]      11.17966644 [kJ/mol]
      delta HF,r (2)               -1.50731751 [mEh]      -0.94585602 [kcal/mol]      -3.95746159 [kJ/mol]

    Dispersion                     -8.65841012 [mEh]      -5.43323438 [kcal/mol]     -22.73265263 [kJ/mol]
      Disp20                       -9.98636983 [mEh]      -6.26654168 [kcal/mol]     -26.21921039 [kJ/mol]
      Exch-Disp20                   1.32795972 [mEh]       0.83330730 [kcal/mol]       3.48655775 [kJ/mol]
      Disp20 (SS)                  -4.99318492 [mEh]      -3.13327084 [kcal/mol]     -13.10960519 [kJ/mol]
      Disp20 (OS)                  -4.99318492 [mEh]      -3.13327084 [kcal/mol]     -13.10960519 [kJ/mol]
      Exch-Disp20 (SS)              0.85900516 [mEh]       0.53903388 [kcal/mol]       2.25531775 [kJ/mol]
      Exch-Disp20 (OS)              0.46895455 [mEh]       0.29427342 [kcal/mol]       1.23124001 [kJ/mol]

  Total HF                         -0.25106477 [mEh]      -0.15754552 [kcal/mol]      -0.65917046 [kJ/mol]
  Total SAPT0                      -8.90947489 [mEh]      -5.59077990 [kcal/mol]     -23.39182309 [kJ/mol]

  Special recipe for scaled SAPT0 (see Manual):
    Electrostatics sSAPT0          -9.71152203 [mEh]      -6.09407208 [kcal/mol]     -25.49759757 [kJ/mol]
    Exchange sSAPT0                13.04178421 [mEh]       8.18384315 [kcal/mol]      34.24119972 [kJ/mol]
    Induction sSAPT0               -3.51233454 [mEh]      -2.20402320 [kcal/mol]      -9.22163308 [kJ/mol]
    Dispersion sSAPT0              -8.63689373 [mEh]      -5.41973264 [kcal/mol]     -22.67616137 [kJ/mol]
  Total sSAPT0                     -8.81896610 [mEh]      -5.53398477 [kcal/mol]     -23.15419229 [kJ/mol]
  --------------------------------------------------------------------------------------------------------

*** Psi4 exiting successfully. Buy a developer a beer!
