                               Psi4 1.3.2 release

  ==> Input File <==

--------------------------------------------------------------------------
# Any line starting with the # character is a comment line
#! Sample  computation

memory 22 gb

molecule Dimer {
0 1
 C  -2.167201    0.505459    0.164996
 C  -0.682680    0.222288    0.037831
 O  -0.212578   -0.906366    0.122453
 N   0.099089    1.318995   -0.165747
 H   1.101116    1.204368   -0.158830
 H  -0.293164    2.242052   -0.174902
 C  -3.009665   -0.723418   -0.135390
 H  -2.719335   -1.546967    0.512074
 H  -4.066336   -0.509505    0.016320
 H  -2.866680   -1.046658   -1.165057
 H  -2.339758    0.843160    1.190333
 H  -2.435545    1.338023   -0.488112

 --
0 1
 C   3.110349   -0.351323   -0.661452
 H   3.941210   -0.013852   -1.266169
 H   2.272261   -0.818822   -1.160716
 C   3.113727   -0.211675    0.666641
 H   2.278485   -0.565409    1.256184
 H   3.947568    0.243587    1.183721

units angstrom

no_reorient
symmetry c1
}

set globals{
  basis jun-cc-pvtz
}

energy('sapt0')

--------------------------------------------------------------------------

  //              Dimer HF             //
    Molecular point group: c1
  Charge       = 0
  Multiplicity = 1
  Basis Set: JUN-CC-PVTZ
    Blend: JUN-CC-PVTZ
  Basis Set: (JUN-CC-PVTZ AUX)
    Blend: JUN-CC-PVTZ-JKFIT
  @DF-RHF Final Energy:  -325.17534891878535
    Total Energy =                       -325.1753489187853461
  //            Monomer A HF           //
    Molecular point group: c1
  Multiplicity = 1
  Basis Set: JUN-CC-PVTZ
    Blend: JUN-CC-PVTZ
  Basis Set: (JUN-CC-PVTZ AUX)
    Blend: JUN-CC-PVTZ-JKFIT
  @DF-RHF Final Energy:  -247.10995591024943
    Total Energy =                       -247.1099559102494254
  //            Monomer B HF           //
    Molecular point group: c1

    Geometry (in Angstrom), charge = 0, multiplicity = 1:

       Center              X                  Y                   Z               Mass
    ------------   -----------------  -----------------  -----------------  -----------------
      Gh(C)          -2.178798581884     0.518820087992     0.162502835650    12.000000000000
      Gh(C)          -0.694277581884     0.235649087992     0.035337835650    12.000000000000
      Gh(O)          -0.224175581884    -0.893004912008     0.119959835650    15.994914619570
      Gh(N)           0.087491418116     1.332356087992    -0.168240164350    14.003074004430
      Gh(H)           1.089518418116     1.217729087992    -0.161323164350     1.007825032230
      Gh(H)          -0.304761581884     2.255413087992    -0.177395164350     1.007825032230
      Gh(C)          -3.021262581884    -0.710056912008    -0.137883164350    12.000000000000
      Gh(H)          -2.730932581884    -1.533605912008     0.509580835650     1.007825032230
      Gh(H)          -4.077933581884    -0.496143912008     0.013826835650     1.007825032230
      Gh(H)          -2.878277581884    -1.033296912008    -1.167550164350     1.007825032230
      Gh(H)          -2.351355581884     0.856521087992     1.187839835650     1.007825032230
      Gh(H)          -2.447142581884     1.351384087992    -0.490605164350     1.007825032230
         C            3.098751418116    -0.337961912008    -0.663945164350    12.000000000000
         H            3.929612418116    -0.000490912008    -1.268662164350     1.007825032230
         H            2.260663418116    -0.805460912008    -1.163209164350     1.007825032230
         C            3.102129418116    -0.198313912008     0.664147835650    12.000000000000
         H            2.266887418116    -0.552047912008     1.253690835650     1.007825032230
         H            3.935970418116     0.256948087992     1.181227835650     1.007825032230

  Charge       = 0
  Multiplicity = 1
  Basis Set: JUN-CC-PVTZ
    Blend: JUN-CC-PVTZ
  Basis Set: (JUN-CC-PVTZ AUX)
    Blend: JUN-CC-PVTZ-JKFIT

    Orbital Energies [Eh]
    ---------------------

    Doubly Occupied:

       1A    -11.231725     2A    -11.230030     3A     -1.034051
       4A     -0.792335     5A     -0.645993     6A     -0.585162
       7A     -0.509815     8A     -0.376412

  @DF-RHF Final Energy:   -78.06421291470353

   => Energetics <=

    Nuclear Repulsion Energy =             33.3828051761357827
    One-Electron Energy =                -170.0829883654056971
    Two-Electron Energy =                  58.6359702745663895
    Total Energy =                        -78.0642129147035320

  Dipole Moment: [D]
     X:     0.0093      Y:    -0.0143      Z:     0.0013     Total:     0.0171

    SAPT Results
  --------------------------------------------------------------------------------------------------------
    Electrostatics                 -8.14757724 [mEh]      -5.11268191 [kcal/mol]     -21.39146109 [kJ/mol]
      Elst10,r                     -8.14757724 [mEh]      -5.11268191 [kcal/mol]     -21.39146109 [kJ/mol]

    Exchange                        9.50346354 [mEh]       5.96351341 [kcal/mol]      24.95134009 [kJ/mol]
      Exch10                        9.50346354 [mEh]       5.96351341 [kcal/mol]      24.95134009 [kJ/mol]
      Exch10(S^2)                   9.45057179 [mEh]       5.93032333 [kcal/mol]      24.81247283 [kJ/mol]

    Induction                      -2.53598013 [mEh]      -1.59135156 [kcal/mol]      -6.65821492 [kJ/mol]
      Ind20,r                      -4.60912257 [mEh]      -2.89226808 [kcal/mol]     -12.10124963 [kJ/mol]
      Exch-Ind20,r                  3.12955908 [mEh]       1.96382797 [kcal/mol]       8.21665624 [kJ/mol]
      delta HF,r (2)               -1.05641665 [mEh]      -0.66291145 [kcal/mol]      -2.77362153 [kJ/mol]

    Dispersion                     -5.75502461 [mEh]      -3.61133247 [kcal/mol]     -15.10981504 [kJ/mol]
      Disp20                       -6.68546014 [mEh]      -4.19518957 [kcal/mol]     -17.55267317 [kJ/mol]
      Exch-Disp20                   0.93043552 [mEh]       0.58385711 [kcal/mol]       2.44285813 [kJ/mol]
      Disp20 (SS)                  -3.34273007 [mEh]      -2.09759479 [kcal/mol]      -8.77633658 [kJ/mol]
      Disp20 (OS)                  -3.34273007 [mEh]      -2.09759479 [kcal/mol]      -8.77633658 [kJ/mol]
      Exch-Disp20 (SS)              0.60568715 [mEh]       0.38007442 [kcal/mol]       1.59023139 [kJ/mol]
      Exch-Disp20 (OS)              0.32474837 [mEh]       0.20378268 [kcal/mol]       0.85262674 [kJ/mol]

  Total HF                         -1.18009383 [mEh]      -0.74052006 [kcal/mol]      -3.09833593 [kJ/mol]
  Total SAPT0                      -6.93511844 [mEh]      -4.35185253 [kcal/mol]     -18.20815097 [kJ/mol]

  Special recipe for scaled SAPT0 (see Manual):
    Electrostatics sSAPT0          -8.14757724 [mEh]      -5.11268191 [kcal/mol]     -21.39146109 [kJ/mol]
    Exchange sSAPT0                 9.50346354 [mEh]       5.96351341 [kcal/mol]      24.95134009 [kJ/mol]
    Induction sSAPT0               -2.48314016 [mEh]      -1.55819398 [kcal/mol]      -6.51948360 [kJ/mol]
    Dispersion sSAPT0              -5.73931499 [mEh]      -3.60147453 [kcal/mol]     -15.06856944 [kJ/mol]
  Total sSAPT0                     -6.86656885 [mEh]      -4.30883701 [kcal/mol]     -18.02817404 [kJ/mol]
  --------------------------------------------------------------------------------------------------------

*** Psi4 exiting successfully. Buy a developer a beer!
