                               Psi4 1.3.2 release

  ==> Input File <==

--------------------------------------------------------------------------
# Any line starting with the # character is a comment line
#! Sample  computation

memory 22 gb

molecule Dimer {
0 1
 C  -1.766373   -0.098848    0.000010
 O  -1.193645   -1.176729   -0.000132
 N  -1.144688    1.105123    0.000054
 H  -1.676810    1.955452    0.000192
 H  -0.136231    1.139725   -0.000001
 H  -2.863016   -0.012562    0.000084

 --
0 1
 C   2.052378   -0.048776   -0.667720
 H   2.803540    0.487741   -1.231332
 H   1.300802   -0.599948   -1.216886
 C   2.052280   -0.048966    0.667764
 H   1.300620   -0.600291    1.216663
 H   2.803360    0.487392    1.231635

units angstrom

no_reorient
symmetry c1
}

set globals{
  basis jun-cc-pvtz
}

energy('sapt0')

--------------------------------------------------------------------------

  //              Dimer HF             //
    Molecular point group: c1
  Charge       = 0
  Multiplicity = 1
  Basis Set: JUN-CC-PVTZ
    Blend: JUN-CC-PVTZ
  Basis Set: (JUN-CC-PVTZ AUX)
    Blend: JUN-CC-PVTZ-JKFIT
  @DF-RHF Final Energy:  -247.06933291024919
    Total Energy =                       -247.0693329102491873
  //            Monomer A HF           //
    Molecular point group: c1
  Multiplicity = 1
  Basis Set: JUN-CC-PVTZ
    Blend: JUN-CC-PVTZ
  Basis Set: (JUN-CC-PVTZ AUX)
    Blend: JUN-CC-PVTZ-JKFIT
  @DF-RHF Final Energy:  -169.00368424435555
    Total Energy =                       -169.0036842443555543
  //            Monomer B HF           //
    Molecular point group: c1

    Geometry (in Angstrom), charge = 0, multiplicity = 1:

       Center              X                  Y                   Z               Mass
    ------------   -----------------  -----------------  -----------------  -----------------
      Gh(C)          -1.718434012273    -0.060166758067     0.000014782637    12.000000000000
      Gh(O)          -1.145706012273    -1.138047758067    -0.000127217363    15.994914619570
      Gh(N)          -1.096749012273     1.143804241933     0.000058782637    14.003074004430
      Gh(H)          -1.628871012273     1.994133241933     0.000196782637     1.007825032230
      Gh(H)          -0.088292012273     1.178406241933     0.000003782637     1.007825032230
      Gh(H)          -2.815077012273     0.026119241933     0.000088782637     1.007825032230
         C            2.100316987727    -0.010094758067    -0.667715217363    12.000000000000
         H            2.851478987727     0.526422241933    -1.231327217363     1.007825032230
         H            1.348740987727    -0.561266758067    -1.216881217363     1.007825032230
         C            2.100218987727    -0.010284758067     0.667768782637    12.000000000000
         H            1.348558987727    -0.561609758067     1.216667782637     1.007825032230
         H            2.851298987727     0.526073241933     1.231639782637     1.007825032230

  Charge       = 0
  Multiplicity = 1
  Basis Set: JUN-CC-PVTZ
    Blend: JUN-CC-PVTZ
  Basis Set: (JUN-CC-PVTZ AUX)
    Blend: JUN-CC-PVTZ-JKFIT

    Orbital Energies [Eh]
    ---------------------

    Doubly Occupied:

       1A    -11.231756     2A    -11.230063     3A     -1.033998
       4A     -0.792486     5A     -0.645827     6A     -0.585381
       7A     -0.509741     8A     -0.376400

  @DF-RHF Final Energy:   -78.06422114828948

   => Energetics <=

    Nuclear Repulsion Energy =             33.3811212822956875
    One-Electron Energy =                -170.0793819550847843
    Two-Electron Energy =                  58.6340395244996202
    Total Energy =                        -78.0642211482894766

  Dipole Moment: [D]
     X:     0.0125      Y:    -0.0133      Z:    -0.0000     Total:     0.0182

    SAPT Results
  --------------------------------------------------------------------------------------------------------
    Electrostatics                 -8.26763632 [mEh]      -5.18802011 [kcal/mol]     -21.70667616 [kJ/mol]
      Elst10,r                     -8.26763632 [mEh]      -5.18802011 [kcal/mol]     -21.70667616 [kJ/mol]

    Exchange                        9.46132686 [mEh]       5.93707224 [kcal/mol]      24.84071025 [kJ/mol]
      Exch10                        9.46132686 [mEh]       5.93707224 [kcal/mol]      24.84071025 [kJ/mol]
      Exch10(S^2)                   9.40495543 [mEh]       5.90169863 [kcal/mol]      24.69270707 [kJ/mol]

    Induction                      -2.62120815 [mEh]      -1.64483295 [kcal/mol]      -6.88198105 [kJ/mol]
      Ind20,r                      -4.79203251 [mEh]      -3.00704580 [kcal/mol]     -12.58147961 [kJ/mol]
      Exch-Ind20,r                  3.26940322 [mEh]       2.05158149 [kcal/mol]       8.58381697 [kJ/mol]
      delta HF,r (2)               -1.09857886 [mEh]      -0.68936864 [kcal/mol]      -2.88431840 [kJ/mol]

    Dispersion                     -5.44273094 [mEh]      -3.41536523 [kcal/mol]     -14.28988811 [kJ/mol]
      Disp20                       -6.33965660 [mEh]      -3.97819458 [kcal/mol]     -16.64476612 [kJ/mol]
      Exch-Disp20                   0.89692567 [mEh]       0.56282935 [kcal/mol]       2.35487801 [kJ/mol]
      Disp20 (SS)                  -3.16982830 [mEh]      -1.98909729 [kcal/mol]      -8.32238306 [kJ/mol]
      Disp20 (OS)                  -3.16982830 [mEh]      -1.98909729 [kcal/mol]      -8.32238306 [kJ/mol]
      Exch-Disp20 (SS)              0.58552124 [mEh]       0.36742013 [kcal/mol]       1.53728581 [kJ/mol]
      Exch-Disp20 (OS)              0.31140442 [mEh]       0.19540923 [kcal/mol]       0.81759220 [kJ/mol]

  Total HF                         -1.42751760 [mEh]      -0.89578082 [kcal/mol]      -3.74794695 [kJ/mol]
  Total SAPT0                      -6.87024854 [mEh]      -4.31114605 [kcal/mol]     -18.03783507 [kJ/mol]

  Special recipe for scaled SAPT0 (see Manual):
    Electrostatics sSAPT0          -8.26763632 [mEh]      -5.18802011 [kcal/mol]     -21.70667616 [kJ/mol]
    Exchange sSAPT0                 9.46132686 [mEh]       5.93707224 [kcal/mol]      24.84071025 [kJ/mol]
    Induction sSAPT0               -2.56206662 [mEh]      -1.60772107 [kcal/mol]      -6.72670497 [kJ/mol]
    Dispersion sSAPT0              -5.42650609 [mEh]      -3.40518398 [kcal/mol]     -14.24728979 [kJ/mol]
  Total sSAPT0                     -6.79488217 [mEh]      -4.26385293 [kcal/mol]     -17.83996067 [kJ/mol]
  --------------------------------------------------------------------------------------------------------

*** Psi4 exiting successfully. Buy a developer a beer!
