                               Psi4 1.3.2 release

  ==> Input File <==

--------------------------------------------------------------------------
# Any line starting with the # character is a comment line
#! Sample  computation

memory 22 gb

molecule Dimer {
0 1
 C  -2.710038   -0.040771   -0.000275
 C  -1.200387   -0.083372   -0.000450
 O  -0.581358   -1.140858    0.000104
 N  -0.573223    1.124349    0.000408
 H  -3.113977    0.968979   -0.014976
 H  -3.068817   -0.586489   -0.870203
 H  -3.067624   -0.559513    0.886675
 H   0.435286    1.143324    0.001292
 H  -1.087647    1.984418   -0.001502

 --
0 1
 C   2.627318   -0.057357   -0.667766
 H   3.395516    0.454643   -1.231372
 H   1.857470   -0.584288   -1.215463
 C   2.626802   -0.057556    0.667692
 H   1.856514   -0.584652    1.214615
 H   3.394534    0.454334    1.232033

units angstrom

no_reorient
symmetry c1
}

set globals{
  basis jun-cc-pvtz
}

energy('sapt0')

--------------------------------------------------------------------------

  //              Dimer HF             //
    Molecular point group: c1
  Charge       = 0
  Multiplicity = 1
  Basis Set: JUN-CC-PVTZ
    Blend: JUN-CC-PVTZ
  Basis Set: (JUN-CC-PVTZ AUX)
    Blend: JUN-CC-PVTZ-JKFIT
  @DF-RHF Final Energy:  -286.12750420597291
    Total Energy =                       -286.1275042059729117
  //            Monomer A HF           //
    Molecular point group: c1
  Multiplicity = 1
  Basis Set: JUN-CC-PVTZ
    Blend: JUN-CC-PVTZ
  Basis Set: (JUN-CC-PVTZ AUX)
    Blend: JUN-CC-PVTZ-JKFIT
  @DF-RHF Final Energy:  -208.06200581818678
    Total Energy =                       -208.0620058181867762
  //            Monomer B HF           //
    Molecular point group: c1

    Geometry (in Angstrom), charge = 0, multiplicity = 1:

       Center              X                  Y                   Z               Mass
    ------------   -----------------  -----------------  -----------------  -----------------
      Gh(C)          -2.703200206627    -0.010215202814    -0.000262324049    12.000000000000
      Gh(C)          -1.193549206627    -0.052816202814    -0.000437324049    12.000000000000
      Gh(O)          -0.574520206627    -1.110302202814     0.000116675951    15.994914619570
      Gh(N)          -0.566385206627     1.154904797186     0.000420675951    14.003074004430
      Gh(H)          -3.107139206627     0.999534797186    -0.014963324049     1.007825032230
      Gh(H)          -3.061979206627    -0.555933202814    -0.870190324049     1.007825032230
      Gh(H)          -3.060786206627    -0.528957202814     0.886687675951     1.007825032230
      Gh(H)           0.442123793373     1.173879797186     0.001304675951     1.007825032230
      Gh(H)          -1.080809206627     2.014973797186    -0.001489324049     1.007825032230
         C            2.634155793373    -0.026801202814    -0.667753324049    12.000000000000
         H            3.402353793373     0.485198797186    -1.231359324049     1.007825032230
         H            1.864307793373    -0.553732202814    -1.215450324049     1.007825032230
         C            2.633639793373    -0.027000202814     0.667704675951    12.000000000000
         H            1.863351793373    -0.554096202814     1.214627675951     1.007825032230
         H            3.401371793373     0.484889797186     1.232045675951     1.007825032230

  Charge       = 0
  Multiplicity = 1
  Basis Set: JUN-CC-PVTZ
    Blend: JUN-CC-PVTZ
  Basis Set: (JUN-CC-PVTZ AUX)
    Blend: JUN-CC-PVTZ-JKFIT

    Orbital Energies [Eh]
    ---------------------

    Doubly Occupied:

       1A    -11.231733     2A    -11.230039     3A     -1.034041
       4A     -0.792330     5A     -0.645995     6A     -0.585143
       7A     -0.509824     8A     -0.376402

  @DF-RHF Final Energy:   -78.06420798661327

   => Energetics <=

    Nuclear Repulsion Energy =             33.3822117449562938
    One-Electron Energy =                -170.0818240323383463
    Two-Electron Energy =                  58.6354043007687835
    Total Energy =                        -78.0642079866132690

  Dipole Moment: [D]
     X:     0.0116      Y:    -0.0132      Z:    -0.0000     Total:     0.0176

    SAPT Results
  --------------------------------------------------------------------------------------------------------
    Electrostatics                 -8.28780056 [mEh]      -5.20067337 [kcal/mol]     -21.75961738 [kJ/mol]
      Elst10,r                     -8.28780056 [mEh]      -5.20067337 [kcal/mol]     -21.75961738 [kJ/mol]

    Exchange                        9.60568339 [mEh]       6.02765733 [kcal/mol]      25.21971827 [kJ/mol]
      Exch10                        9.60568339 [mEh]       6.02765733 [kcal/mol]      25.21971827 [kJ/mol]
      Exch10(S^2)                   9.55126609 [mEh]       5.99350996 [kcal/mol]      25.07684565 [kJ/mol]

    Induction                      -2.60828400 [mEh]      -1.63672292 [kcal/mol]      -6.84804870 [kJ/mol]
      Ind20,r                      -4.72352292 [mEh]      -2.96405538 [kcal/mol]     -12.40160773 [kJ/mol]
      Exch-Ind20,r                  3.19137261 [mEh]       2.00261655 [kcal/mol]       8.37894763 [kJ/mol]
      delta HF,r (2)               -1.07613368 [mEh]      -0.67528408 [kcal/mol]      -2.82538860 [kJ/mol]

    Dispersion                     -5.70634532 [mEh]      -3.58078575 [kcal/mol]     -14.98200757 [kJ/mol]
      Disp20                       -6.63952991 [mEh]      -4.16636792 [kcal/mol]     -17.43208337 [kJ/mol]
      Exch-Disp20                   0.93318459 [mEh]       0.58558217 [kcal/mol]       2.45007580 [kJ/mol]
      Disp20 (SS)                  -3.31976495 [mEh]      -2.08318396 [kcal/mol]      -8.71604168 [kJ/mol]
      Disp20 (OS)                  -3.31976495 [mEh]      -2.08318396 [kcal/mol]      -8.71604168 [kJ/mol]
      Exch-Disp20 (SS)              0.60742303 [mEh]       0.38116370 [kcal/mol]       1.59478894 [kJ/mol]
      Exch-Disp20 (OS)              0.32576156 [mEh]       0.20441846 [kcal/mol]       0.85528686 [kJ/mol]

  Total HF                         -1.29040117 [mEh]      -0.80973896 [kcal/mol]      -3.38794781 [kJ/mol]
  Total SAPT0                      -6.99674649 [mEh]      -4.39052471 [kcal/mol]     -18.36995538 [kJ/mol]

  Special recipe for scaled SAPT0 (see Manual):
    Electrostatics sSAPT0          -8.28780056 [mEh]      -5.20067337 [kcal/mol]     -21.75961738 [kJ/mol]
    Exchange sSAPT0                 9.60568339 [mEh]       6.02765733 [kcal/mol]      25.21971827 [kJ/mol]
    Induction sSAPT0               -2.55342513 [mEh]      -1.60229846 [kcal/mol]      -6.70401675 [kJ/mol]
    Dispersion sSAPT0              -5.69030412 [mEh]      -3.57071974 [kcal/mol]     -14.93989140 [kJ/mol]
  Total sSAPT0                     -6.92584642 [mEh]      -4.34603424 [kcal/mol]     -18.18380727 [kJ/mol]
  --------------------------------------------------------------------------------------------------------

*** Psi4 exiting successfully. Buy a developer a beer!
