                               Psi4 1.3.2 release

  ==> Input File <==

--------------------------------------------------------------------------
# Any line starting with the # character is a comment line
#! Sample  computation

memory 22 gb

molecule Dimer {
0 1
 C  -2.887819   -0.170702    0.546978
 C  -1.489728   -0.510075    0.066944
 O  -0.975149    0.024168   -0.909179
 N  -0.834460   -1.442676    0.811556
 H   0.138546   -1.628859    0.613610
 H  -1.247280   -1.824069    1.642763
 C  -3.721891    0.486124   -0.540291
 H  -3.858381   -0.189660   -1.382697
 H  -4.702226    0.762775   -0.155803
 H  -3.223817    1.378445   -0.911336
 H  -3.370077   -1.074948    0.923513
 H  -2.776493    0.503026    1.400998

 --
0 1
 C   2.265231   -2.121619   -0.485966
 C   2.707250   -0.969322    0.033137
 C   2.316697    0.387521   -0.456874
 C   1.749897    1.270125    0.655973
 C   1.293566    2.620983    0.120862
 H   1.585625   -2.123094   -1.329906
 H   2.586798   -3.076985   -0.093383
 H   3.394281   -1.006209    0.875249
 H   3.195986    0.885464   -0.879187
 H   1.574518    0.290253   -1.251424
 H   0.906016    0.757460    1.122294
 H   2.507713    1.406298    1.432702
 H   2.121722    3.150352   -0.352872
 H   0.508496    2.481765   -0.622652
 H   0.901768    3.255156    0.916086

units angstrom

no_reorient
symmetry c1
}

set globals{
  basis jun-cc-pvtz
}

energy('sapt0')

--------------------------------------------------------------------------

  //              Dimer HF             //
    Molecular point group: c1
  Charge       = 0
  Multiplicity = 1
  Basis Set: JUN-CC-PVTZ
    Blend: JUN-CC-PVTZ
  Basis Set: (JUN-CC-PVTZ AUX)
    Blend: JUN-CC-PVTZ-JKFIT
  @DF-RHF Final Energy:  -442.32183310251975
    Total Energy =                       -442.3218331025198040
  //            Monomer A HF           //
    Molecular point group: c1
  Multiplicity = 1
  Basis Set: JUN-CC-PVTZ
    Blend: JUN-CC-PVTZ
  Basis Set: (JUN-CC-PVTZ AUX)
    Blend: JUN-CC-PVTZ-JKFIT
  @DF-RHF Final Energy:  -247.10996201108611
    Total Energy =                       -247.1099620110861110
  //            Monomer B HF           //
    Molecular point group: c1

    Geometry (in Angstrom), charge = 0, multiplicity = 1:

       Center              X                  Y                   Z               Mass
    ------------   -----------------  -----------------  -----------------  -----------------
      Gh(C)          -2.886149926929    -0.143308517280     0.560431463966    12.000000000000
      Gh(C)          -1.488058926929    -0.482681517280     0.080397463966    12.000000000000
      Gh(O)          -0.973479926929     0.051561482720    -0.895725536034    15.994914619570
      Gh(N)          -0.832790926929    -1.415282517280     0.825009463966    14.003074004430
      Gh(H)           0.140215073071    -1.601465517280     0.627063463966     1.007825032230
      Gh(H)          -1.245610926929    -1.796675517280     1.656216463966     1.007825032230
      Gh(C)          -3.720221926929     0.513517482720    -0.526837536034    12.000000000000
      Gh(H)          -3.856711926929    -0.162266517280    -1.369243536034     1.007825032230
      Gh(H)          -4.700556926929     0.790168482720    -0.142349536034     1.007825032230
      Gh(H)          -3.222147926929     1.405838482720    -0.897882536034     1.007825032230
      Gh(H)          -3.368407926929    -1.047554517280     0.936966463966     1.007825032230
      Gh(H)          -2.774823926929     0.530419482720     1.414451463966     1.007825032230
         C            2.266900073071    -2.094225517280    -0.472512536034    12.000000000000
         C            2.708919073071    -0.941928517280     0.046590463966    12.000000000000
         C            2.318366073071     0.414914482720    -0.443420536034    12.000000000000
         C            1.751566073071     1.297518482720     0.669426463966    12.000000000000
         C            1.295235073071     2.648376482720     0.134315463966    12.000000000000
         H            1.587294073071    -2.095700517280    -1.316452536034     1.007825032230
         H            2.588467073071    -3.049591517280    -0.079929536034     1.007825032230
         H            3.395950073071    -0.978815517280     0.888702463966     1.007825032230
         H            3.197655073071     0.912857482720    -0.865733536034     1.007825032230
         H            1.576187073071     0.317646482720    -1.237970536034     1.007825032230
         H            0.907685073071     0.784853482720     1.135747463966     1.007825032230
         H            2.509382073071     1.433691482720     1.446155463966     1.007825032230
         H            2.123391073071     3.177745482720    -0.339418536034     1.007825032230
         H            0.510165073071     2.509158482720    -0.609198536034     1.007825032230
         H            0.903437073071     3.282549482720     0.929539463966     1.007825032230

  Charge       = 0
  Multiplicity = 1
  Basis Set: JUN-CC-PVTZ
    Blend: JUN-CC-PVTZ
  Basis Set: (JUN-CC-PVTZ AUX)
    Blend: JUN-CC-PVTZ-JKFIT

    Orbital Energies [Eh]
    ---------------------

    Doubly Occupied:

       1A    -11.231217     2A    -11.222012     3A    -11.219362
       4A    -11.217395     5A    -11.211581     6A     -1.089637
       7A     -1.022143     8A     -0.922261     9A     -0.810985
      10A     -0.757048    11A     -0.650404    12A     -0.618083
      13A     -0.590507    14A     -0.566231    15A     -0.538457
      16A     -0.511154    17A     -0.481980    18A     -0.474868
      19A     -0.469540    20A     -0.355321

  @DF-RHF Final Energy:  -195.21201651497847

   => Energetics <=

    Nuclear Repulsion Energy =            170.4205800304018794
    One-Electron Energy =                -599.3448249789651072
    Two-Electron Energy =                 233.7122284335847553
    Total Energy =                       -195.2120165149784725

  Dipole Moment: [D]
     X:     0.0110      Y:     0.4544      Z:     0.0984     Total:     0.4651

    SAPT Results
  --------------------------------------------------------------------------------------------------------
    Electrostatics                 -9.85940654 [mEh]      -6.18687101 [kcal/mol]     -25.88586830 [kJ/mol]
      Elst10,r                     -9.85940654 [mEh]      -6.18687101 [kcal/mol]     -25.88586830 [kJ/mol]

    Exchange                       13.69426468 [mEh]       8.59328082 [kcal/mol]      35.95428696 [kJ/mol]
      Exch10                       13.69426468 [mEh]       8.59328082 [kcal/mol]      35.95428696 [kJ/mol]
      Exch10(S^2)                  13.63799394 [mEh]       8.55797040 [kcal/mol]      35.80654815 [kJ/mol]

    Induction                      -3.68943459 [mEh]      -2.31515516 [kcal/mol]      -9.68660919 [kJ/mol]
      Ind20,r                      -6.38303506 [mEh]      -4.00541497 [kcal/mol]     -16.75865623 [kJ/mol]
      Exch-Ind20,r                  4.18908097 [mEh]       2.62868800 [kcal/mol]      10.99843058 [kJ/mol]
      delta HF,r (2)               -1.49548051 [mEh]      -0.93842819 [kcal/mol]      -3.92638355 [kJ/mol]

    Dispersion                    -10.14550426 [mEh]      -6.36640004 [kcal/mol]     -26.63701776 [kJ/mol]
      Disp20                      -11.59636195 [mEh]      -7.27682699 [kcal/mol]     -30.44624411 [kJ/mol]
      Exch-Disp20                   1.45085769 [mEh]       0.91042695 [kcal/mol]       3.80922635 [kJ/mol]
      Disp20 (SS)                  -5.79818098 [mEh]      -3.63841349 [kcal/mol]     -15.22312206 [kJ/mol]
      Disp20 (OS)                  -5.79818098 [mEh]      -3.63841349 [kcal/mol]     -15.22312206 [kJ/mol]
      Exch-Disp20 (SS)              0.93596285 [mEh]       0.58732556 [kcal/mol]       2.45737012 [kJ/mol]
      Exch-Disp20 (OS)              0.51489484 [mEh]       0.32310139 [kcal/mol]       1.35185623 [kJ/mol]

  Total HF                          0.14542354 [mEh]       0.09125465 [kcal/mol]       0.38180946 [kJ/mol]
  Total SAPT0                     -10.00008071 [mEh]      -6.27514539 [kcal/mol]     -26.25520830 [kJ/mol]

  Special recipe for scaled SAPT0 (see Manual):
    Electrostatics sSAPT0          -9.85940654 [mEh]      -6.18687101 [kcal/mol]     -25.88586830 [kJ/mol]
    Exchange sSAPT0                13.69426468 [mEh]       8.59328082 [kcal/mol]      35.95428696 [kJ/mol]
    Induction sSAPT0               -3.63736756 [mEh]      -2.28248260 [kcal/mol]      -9.54990722 [kJ/mol]
    Dispersion sSAPT0             -10.12747122 [mEh]      -6.35508414 [kcal/mol]     -26.58967203 [kJ/mol]
  Total sSAPT0                     -9.92998065 [mEh]      -6.23115693 [kcal/mol]     -26.07116059 [kJ/mol]
  --------------------------------------------------------------------------------------------------------

*** Psi4 exiting successfully. Buy a developer a beer!
