                               Psi4 1.3.2 release

  ==> Input File <==

--------------------------------------------------------------------------
# Any line starting with the # character is a comment line
#! Sample  computation

memory 22 gb

molecule Dimer {
0 1
 C  -2.677011   -1.035658   -0.029165
 O  -1.782439   -1.522165    0.644486
 N  -2.670676    0.220443   -0.535443
 H  -3.452775    0.554552   -1.067974
 H  -1.893345    0.839152   -0.347564
 H  -3.587291   -1.594938   -0.292335

 --
0 1
 C    0.058293    2.499999    0.020651
 C    0.364711    1.284496    0.490740
 C    1.054017    0.213430   -0.288256
 C    2.377999   -0.200761    0.356111
 C    3.052202   -1.329727   -0.412655
 H    0.303173    2.781304   -0.996567
 H   -0.427191    3.239742    0.642790
 H    0.107285    1.038062    1.517348
 H    0.401348   -0.663803   -0.332271
 H    1.231321    0.554714   -1.312043
 H    3.039240    0.667278    0.408808
 H    2.187577   -0.515557    1.384930
 H    2.407138   -2.208122   -0.448171
 H    3.262019   -1.027501   -1.439500
 H    3.994483   -1.621326    0.050204

units angstrom

no_reorient
symmetry c1
}

set globals{
  basis jun-cc-pvtz
}

energy('sapt0')

--------------------------------------------------------------------------

  //              Dimer HF             //
    Molecular point group: c1
  Charge       = 0
  Multiplicity = 1
  Basis Set: JUN-CC-PVTZ
    Blend: JUN-CC-PVTZ
  Basis Set: (JUN-CC-PVTZ AUX)
    Blend: JUN-CC-PVTZ-JKFIT
  @DF-RHF Final Energy:  -364.21755883970451
    Total Energy =                       -364.2175588397045090
  //            Monomer A HF           //
    Molecular point group: c1
  Multiplicity = 1
  Basis Set: JUN-CC-PVTZ
    Blend: JUN-CC-PVTZ
  Basis Set: (JUN-CC-PVTZ AUX)
    Blend: JUN-CC-PVTZ-JKFIT
  @DF-RHF Final Energy:  -169.00360597769733
    Total Energy =                       -169.0036059776973332
  //            Monomer B HF           //
    Molecular point group: c1

    Geometry (in Angstrom), charge = 0, multiplicity = 1:

       Center              X                  Y                   Z               Mass
    ------------   -----------------  -----------------  -----------------  -----------------
      Gh(C)          -2.611738375097    -1.018115613500    -0.048365303286    12.000000000000
      Gh(O)          -1.717166375097    -1.504622613500     0.625285696714    15.994914619570
      Gh(N)          -2.605403375097     0.237985386500    -0.554643303286    14.003074004430
      Gh(H)          -3.387502375097     0.572094386500    -1.087174303286     1.007825032230
      Gh(H)          -1.828072375097     0.856694386500    -0.366764303286     1.007825032230
      Gh(H)          -3.522018375097    -1.577395613500    -0.311535303286     1.007825032230
         C            0.123565624903     2.517541386500     0.001450696714    12.000000000000
         C            0.429983624903     1.302038386500     0.471539696714    12.000000000000
         C            1.119289624903     0.230972386500    -0.307456303286    12.000000000000
         C            2.443271624903    -0.183218613500     0.336910696714    12.000000000000
         C            3.117474624903    -1.312184613500    -0.431855303286    12.000000000000
         H            0.368445624903     2.798846386500    -1.015767303286     1.007825032230
         H           -0.361918375097     3.257284386500     0.623589696714     1.007825032230
         H            0.172557624903     1.055604386500     1.498147696714     1.007825032230
         H            0.466620624903    -0.646260613500    -0.351471303286     1.007825032230
         H            1.296593624903     0.572256386500    -1.331243303286     1.007825032230
         H            3.104512624903     0.684820386500     0.389607696714     1.007825032230
         H            2.252849624903    -0.498014613500     1.365729696714     1.007825032230
         H            2.472410624903    -2.190579613500    -0.467371303286     1.007825032230
         H            3.327291624903    -1.009958613500    -1.458700303286     1.007825032230
         H            4.059755624903    -1.603783613500     0.031003696714     1.007825032230

  Charge       = 0
  Multiplicity = 1
  Basis Set: JUN-CC-PVTZ
    Blend: JUN-CC-PVTZ
  Basis Set: (JUN-CC-PVTZ AUX)
    Blend: JUN-CC-PVTZ-JKFIT

    Orbital Energies [Eh]
    ---------------------

    Doubly Occupied:

       1A    -11.230991     2A    -11.222031     3A    -11.219580
       4A    -11.217378     5A    -11.211471     6A     -1.089851
       7A     -1.021672     8A     -0.922690     9A     -0.811862
      10A     -0.756507    11A     -0.651464    12A     -0.616869
      13A     -0.589605    14A     -0.566960    15A     -0.538811
      16A     -0.510600    17A     -0.483673    18A     -0.473735
      19A     -0.469781    20A     -0.355227

  @DF-RHF Final Energy:  -195.21219431435290

   => Energetics <=

    Nuclear Repulsion Energy =            170.5060129734078487
    One-Electron Energy =                -599.5149032214776526
    Two-Electron Energy =                 233.7966959337169044
    Total Energy =                       -195.2121943143528995

  Dipole Moment: [D]
     X:     0.2485      Y:    -0.3982      Z:     0.0411     Total:     0.4712

    SAPT Results
  --------------------------------------------------------------------------------------------------------
    Electrostatics                 -9.72160117 [mEh]      -6.10039684 [kcal/mol]     -25.52406036 [kJ/mol]
      Elst10,r                     -9.72160117 [mEh]      -6.10039684 [kcal/mol]     -25.52406036 [kJ/mol]

    Exchange                       11.63966017 [mEh]       7.30399703 [kcal/mol]      30.55992356 [kJ/mol]
      Exch10                       11.63966017 [mEh]       7.30399703 [kcal/mol]      30.55992356 [kJ/mol]
      Exch10(S^2)                  11.57183806 [mEh]       7.26143801 [kcal/mol]      30.38185664 [kJ/mol]

    Induction                      -3.67660665 [mEh]      -2.30710550 [kcal/mol]      -9.65292943 [kJ/mol]
      Ind20,r                      -5.84436982 [mEh]      -3.66739743 [kcal/mol]     -15.34439086 [kJ/mol]
      Exch-Ind20,r                  3.69354895 [mEh]       2.31773696 [kcal/mol]       9.69741143 [kJ/mol]
      delta HF,r (2)               -1.52578578 [mEh]      -0.95744503 [kcal/mol]      -4.00595000 [kJ/mol]

    Dispersion                     -7.08364043 [mEh]      -4.44505148 [kcal/mol]     -18.59809540 [kJ/mol]
      Disp20                       -8.18986750 [mEh]      -5.13921945 [kcal/mol]     -21.50249417 [kJ/mol]
      Exch-Disp20                   1.10622707 [mEh]       0.69416797 [kcal/mol]       2.90439877 [kJ/mol]
      Disp20 (SS)                  -4.09493375 [mEh]      -2.56960972 [kcal/mol]     -10.75124708 [kJ/mol]
      Disp20 (OS)                  -4.09493375 [mEh]      -2.56960972 [kcal/mol]     -10.75124708 [kJ/mol]
      Exch-Disp20 (SS)              0.72075876 [mEh]       0.45228295 [kcal/mol]       1.89235186 [kJ/mol]
      Exch-Disp20 (OS)              0.38546831 [mEh]       0.24188502 [kcal/mol]       1.01204691 [kJ/mol]

  Total HF                         -1.75854765 [mEh]      -1.10350531 [kcal/mol]      -4.61706623 [kJ/mol]
  Total SAPT0                      -8.84218809 [mEh]      -5.54855679 [kcal/mol]     -23.21516163 [kJ/mol]

  Special recipe for scaled SAPT0 (see Manual):
    Electrostatics sSAPT0          -9.72160117 [mEh]      -6.10039684 [kcal/mol]     -25.52406036 [kJ/mol]
    Exchange sSAPT0                11.63966017 [mEh]       7.30399703 [kcal/mol]      30.55992356 [kJ/mol]
    Induction sSAPT0               -3.61128202 [mEh]      -2.26611368 [kcal/mol]      -9.48141965 [kJ/mol]
    Dispersion sSAPT0              -7.06407555 [mEh]      -4.43277433 [kcal/mol]     -18.54672779 [kJ/mol]
  Total sSAPT0                     -8.75729857 [mEh]      -5.49528782 [kcal/mol]     -22.99228423 [kJ/mol]
  --------------------------------------------------------------------------------------------------------

*** Psi4 exiting successfully. Buy a developer a beer!
