                               Psi4 1.3.2 release

  ==> Input File <==

--------------------------------------------------------------------------
# Any line starting with the # character is a comment line
#! Sample  computation

memory 22 gb

molecule Dimer {
0 1
 C  -3.669070   -0.973504   -0.169472
 C  -2.325398   -0.338410    0.100818
 O  -1.491665   -0.870964    0.824697
 N  -2.098809    0.852606   -0.515482
 H  -4.308640   -0.374646   -0.813971
 H  -3.502919   -1.945351   -0.629602
 H  -4.168197   -1.138988    0.782765
 H  -1.221769    1.328351   -0.356469
 H  -2.797839    1.285898   -1.088588

 --
0 1
 C   1.081200    2.579907   -0.000065
 C   1.083086    1.316882    0.443406
 C   1.552662    0.135699   -0.339868
 C   2.704388   -0.590208    0.357160
 C   3.147072   -1.824805   -0.417358
 H   1.431402    2.821049   -0.996528
 H   0.743254    3.396254    0.623927
 H   0.724078    1.109011    1.447472
 H   0.721357   -0.567282   -0.449672
 H   1.864021    0.451868   -1.339497
 H   3.542907    0.099479    0.478747
 H   2.382982   -0.878150    1.360840
 H   2.321028   -2.529231   -0.519960
 H   3.482061   -1.554077   -1.419545
 H   3.967617   -2.338079    0.083155

units angstrom

no_reorient
symmetry c1
}

set globals{
  basis jun-cc-pvtz
}

energy('sapt0')

--------------------------------------------------------------------------

  //              Dimer HF             //
    Molecular point group: c1
  Charge       = 0
  Multiplicity = 1
  Basis Set: JUN-CC-PVTZ
    Blend: JUN-CC-PVTZ
  Basis Set: (JUN-CC-PVTZ AUX)
    Blend: JUN-CC-PVTZ-JKFIT
  @DF-RHF Final Energy:  -403.27555678184012
    Total Energy =                       -403.2755567818401232
  //            Monomer A HF           //
    Molecular point group: c1
  Multiplicity = 1
  Basis Set: JUN-CC-PVTZ
    Blend: JUN-CC-PVTZ
  Basis Set: (JUN-CC-PVTZ AUX)
    Blend: JUN-CC-PVTZ-JKFIT
  @DF-RHF Final Energy:  -208.06194943720504
    Total Energy =                       -208.0619494372050440
  //            Monomer B HF           //
    Molecular point group: c1

    Geometry (in Angstrom), charge = 0, multiplicity = 1:

       Center              X                  Y                   Z               Mass
    ------------   -----------------  -----------------  -----------------  -----------------
      Gh(C)          -3.629263235532    -0.979966614703    -0.191227369627    12.000000000000
      Gh(C)          -2.285591235532    -0.344872614703     0.079062630373    12.000000000000
      Gh(O)          -1.451858235532    -0.877426614703     0.802941630373    15.994914619570
      Gh(N)          -2.059002235532     0.846143385297    -0.537237369627    14.003074004430
      Gh(H)          -4.268833235532    -0.381108614703    -0.835726369627     1.007825032230
      Gh(H)          -3.463112235532    -1.951813614703    -0.651357369627     1.007825032230
      Gh(H)          -4.128390235532    -1.145450614703     0.761009630373     1.007825032230
      Gh(H)          -1.181962235532     1.321888385297    -0.378224369627     1.007825032230
      Gh(H)          -2.758032235532     1.279435385297    -1.110343369627     1.007825032230
         C            1.121006764468     2.573444385297    -0.021820369627    12.000000000000
         C            1.122892764468     1.310419385297     0.421650630373    12.000000000000
         C            1.592468764468     0.129236385297    -0.361623369627    12.000000000000
         C            2.744194764468    -0.596670614703     0.335404630373    12.000000000000
         C            3.186878764468    -1.831267614703    -0.439113369627    12.000000000000
         H            1.471208764468     2.814586385297    -1.018283369627     1.007825032230
         H            0.783060764468     3.389791385297     0.602171630373     1.007825032230
         H            0.763884764468     1.102548385297     1.425716630373     1.007825032230
         H            0.761163764468    -0.573744614703    -0.471427369627     1.007825032230
         H            1.903827764468     0.445405385297    -1.361252369627     1.007825032230
         H            3.582713764468     0.093016385297     0.456991630373     1.007825032230
         H            2.422788764468    -0.884612614703     1.339084630373     1.007825032230
         H            2.360834764468    -2.535693614703    -0.541715369627     1.007825032230
         H            3.521867764468    -1.560539614703    -1.441300369627     1.007825032230
         H            4.007423764468    -2.344541614703     0.061399630373     1.007825032230

  Charge       = 0
  Multiplicity = 1
  Basis Set: JUN-CC-PVTZ
    Blend: JUN-CC-PVTZ
  Basis Set: (JUN-CC-PVTZ AUX)
    Blend: JUN-CC-PVTZ-JKFIT

    Orbital Energies [Eh]
    ---------------------

    Doubly Occupied:

       1A    -11.230984     2A    -11.221933     3A    -11.219509
       4A    -11.217394     5A    -11.211486     6A     -1.089920
       7A     -1.021689     8A     -0.922691     9A     -0.811705
      10A     -0.756703    11A     -0.651516    12A     -0.616860
      13A     -0.589802    14A     -0.566816    15A     -0.538888
      16A     -0.510773    17A     -0.483383    18A     -0.473882
      19A     -0.469704    20A     -0.355257

  @DF-RHF Final Energy:  -195.21218959735032

   => Energetics <=

    Nuclear Repulsion Energy =            170.5084097793361479
    One-Electron Energy =                -599.5194077973005733
    Two-Electron Energy =                 233.7988084206141082
    Total Energy =                       -195.2121895973503172

  Dipole Moment: [D]
     X:     0.1444      Y:    -0.4456      Z:     0.0379     Total:     0.4699

    SAPT Results
  --------------------------------------------------------------------------------------------------------
    Electrostatics                 -9.49030081 [mEh]      -5.95525367 [kcal/mol]     -24.91678134 [kJ/mol]
      Elst10,r                     -9.49030081 [mEh]      -5.95525367 [kcal/mol]     -24.91678134 [kJ/mol]

    Exchange                       11.57685493 [mEh]       7.26458615 [kcal/mol]      30.39502844 [kJ/mol]
      Exch10                       11.57685493 [mEh]       7.26458615 [kcal/mol]      30.39502844 [kJ/mol]
      Exch10(S^2)                  11.51056890 [mEh]       7.22299103 [kcal/mol]      30.22099449 [kJ/mol]

    Induction                      -3.50430141 [mEh]      -2.19898233 [kcal/mol]      -9.20054208 [kJ/mol]
      Ind20,r                      -5.68816112 [mEh]      -3.56937499 [kcal/mol]     -14.93426497 [kJ/mol]
      Exch-Ind20,r                  3.61312269 [mEh]       2.26726871 [kcal/mol]       9.48625230 [kJ/mol]
      delta HF,r (2)               -1.42926297 [mEh]      -0.89687606 [kcal/mol]      -3.75252942 [kJ/mol]

    Dispersion                     -7.53010197 [mEh]      -4.72521033 [kcal/mol]     -19.77028000 [kJ/mol]
      Disp20                       -8.67798006 [mEh]      -5.44551470 [kcal/mol]     -22.78403351 [kJ/mol]
      Exch-Disp20                   1.14787809 [mEh]       0.72030438 [kcal/mol]       3.01375351 [kJ/mol]
      Disp20 (SS)                  -4.33899003 [mEh]      -2.72275735 [kcal/mol]     -11.39201676 [kJ/mol]
      Disp20 (OS)                  -4.33899003 [mEh]      -2.72275735 [kcal/mol]     -11.39201676 [kJ/mol]
      Exch-Disp20 (SS)              0.74506606 [mEh]       0.46753601 [kcal/mol]       1.95617066 [kJ/mol]
      Exch-Disp20 (OS)              0.40281203 [mEh]       0.25276837 [kcal/mol]       1.05758285 [kJ/mol]

  Total HF                         -1.41774728 [mEh]      -0.88964985 [kcal/mol]      -3.72229498 [kJ/mol]
  Total SAPT0                      -8.94784926 [mEh]      -5.61486018 [kcal/mol]     -23.49257499 [kJ/mol]

  Special recipe for scaled SAPT0 (see Manual):
    Electrostatics sSAPT0          -9.49030081 [mEh]      -5.95525367 [kcal/mol]     -24.91678134 [kJ/mol]
    Exchange sSAPT0                11.57685493 [mEh]       7.26458615 [kcal/mol]      30.39502844 [kJ/mol]
    Induction sSAPT0               -3.44152048 [mEh]      -2.15958670 [kcal/mol]      -9.03571077 [kJ/mol]
    Dispersion sSAPT0              -7.51015666 [mEh]      -4.71269445 [kcal/mol]     -19.71791360 [kJ/mol]
  Total sSAPT0                     -8.86512301 [mEh]      -5.56294868 [kcal/mol]     -23.27537726 [kJ/mol]
  --------------------------------------------------------------------------------------------------------

*** Psi4 exiting successfully. Buy a developer a beer!
