                               Psi4 1.3.2 release

  ==> Input File <==

--------------------------------------------------------------------------
# Any line starting with the # character is a comment line
#! Sample  computation

memory 22 gb

molecule Dimer {
0 1
 C  -2.204920    0.059571    0.023463
 O  -1.827792   -1.041126   -0.346823
 N  -1.393705    1.119394    0.251815
 H  -1.780482    2.003094    0.528096
 H  -0.399687    1.040367    0.084078
 H  -3.264647    0.285781    0.213071

 --
0 1
 C   2.125103    1.119520   -0.091529
 C   1.743272   -0.105977   -0.469491
 C   1.540594   -1.259699    0.456680
 H   2.257255    1.914730   -0.812308
 H   2.330799    1.343062    0.948265
 H   1.551917   -0.287956   -1.522342
 H   2.189711   -2.091439    0.179428
 H   1.758457   -0.979647    1.486768
 H   0.510649   -1.615237    0.392079

units angstrom

no_reorient
symmetry c1
}

set globals{
  basis jun-cc-pvtz
}

energy('sapt0')

--------------------------------------------------------------------------

  //              Dimer HF             //
    Molecular point group: c1
  Charge       = 0
  Multiplicity = 1
  Basis Set: JUN-CC-PVTZ
    Blend: JUN-CC-PVTZ
  Basis Set: (JUN-CC-PVTZ AUX)
    Blend: JUN-CC-PVTZ-JKFIT
  @DF-RHF Final Energy:  -286.12235835695731
    Total Energy =                       -286.1223583569573066
  //            Monomer A HF           //
    Molecular point group: c1
  Multiplicity = 1
  Basis Set: JUN-CC-PVTZ
    Blend: JUN-CC-PVTZ
  Basis Set: (JUN-CC-PVTZ AUX)
    Blend: JUN-CC-PVTZ-JKFIT
  @DF-RHF Final Energy:  -169.00360269074346
    Total Energy =                       -169.0036026907434632
  //            Monomer B HF           //
    Molecular point group: c1

    Geometry (in Angstrom), charge = 0, multiplicity = 1:

       Center              X                  Y                   Z               Mass
    ------------   -----------------  -----------------  -----------------  -----------------
      Gh(C)          -2.146246124929     0.077848691354     0.040494366444    12.000000000000
      Gh(O)          -1.769118124929    -1.022848308646    -0.329791633556    15.994914619570
      Gh(N)          -1.335031124929     1.137671691354     0.268846366444    14.003074004430
      Gh(H)          -1.721808124929     2.021371691354     0.545127366444     1.007825032230
      Gh(H)          -0.341013124929     1.058644691354     0.101109366444     1.007825032230
      Gh(H)          -3.205973124929     0.304058691354     0.230102366444     1.007825032230
         C            2.183776875071     1.137797691354    -0.074497633556    12.000000000000
         C            1.801945875071    -0.087699308646    -0.452459633556    12.000000000000
         C            1.599267875071    -1.241421308646     0.473711366444    12.000000000000
         H            2.315928875071     1.933007691354    -0.795276633556     1.007825032230
         H            2.389472875071     1.361339691354     0.965296366444     1.007825032230
         H            1.610590875071    -0.269678308646    -1.505310633556     1.007825032230
         H            2.248384875071    -2.073161308646     0.196459366444     1.007825032230
         H            1.817130875071    -0.961369308646     1.503799366444     1.007825032230
         H            0.569322875071    -1.596959308646     0.409110366444     1.007825032230

  Charge       = 0
  Multiplicity = 1
  Basis Set: JUN-CC-PVTZ
    Blend: JUN-CC-PVTZ
  Basis Set: (JUN-CC-PVTZ AUX)
    Blend: JUN-CC-PVTZ-JKFIT

    Orbital Energies [Eh]
    ---------------------

    Doubly Occupied:

       1A    -11.234561     2A    -11.220995     3A    -11.217723
       4A     -1.064622     5A     -0.933035     6A     -0.757670
       7A     -0.639443     8A     -0.582828     9A     -0.569644
      10A     -0.523421    11A     -0.492832    12A     -0.357234

  @DF-RHF Final Energy:  -117.11677965063865

   => Energetics <=

    Nuclear Repulsion Energy =             70.8386604616619735
    One-Electron Energy =                -296.7228644249803438
    Two-Electron Energy =                 108.7674243126797364
    Total Energy =                       -117.1167796506386480

  Dipole Moment: [D]
     X:    -0.1048      Y:    -0.4219      Z:     0.0277     Total:     0.4356

    SAPT Results
  --------------------------------------------------------------------------------------------------------
    Electrostatics                 -9.63485496 [mEh]      -6.04596277 [kcal/mol]     -25.29630822 [kJ/mol]
      Elst10,r                     -9.63485496 [mEh]      -6.04596277 [kcal/mol]     -25.29630822 [kJ/mol]

    Exchange                       11.34886794 [mEh]       7.12152215 [kcal/mol]      29.79644868 [kJ/mol]
      Exch10                       11.34886794 [mEh]       7.12152215 [kcal/mol]      29.79644868 [kJ/mol]
      Exch10(S^2)                  11.28686802 [mEh]       7.08261661 [kcal/mol]      29.63366790 [kJ/mol]

    Induction                      -3.69002856 [mEh]      -2.31552788 [kcal/mol]      -9.68816864 [kJ/mol]
      Ind20,r                      -5.70604204 [mEh]      -3.58059544 [kcal/mol]     -14.98121132 [kJ/mol]
      Exch-Ind20,r                  3.53293493 [mEh]       2.21695014 [kcal/mol]       9.27571938 [kJ/mol]
      delta HF,r (2)               -1.51692144 [mEh]      -0.95188258 [kcal/mol]      -3.98267670 [kJ/mol]

    Dispersion                     -6.38321947 [mEh]      -4.00553069 [kcal/mol]     -16.75914042 [kJ/mol]
      Disp20                       -7.41859913 [mEh]      -4.65524124 [kcal/mol]     -19.47752934 [kJ/mol]
      Exch-Disp20                   1.03537966 [mEh]       0.64971055 [kcal/mol]       2.71838892 [kJ/mol]
      Disp20 (SS)                  -3.70929957 [mEh]      -2.32762062 [kcal/mol]      -9.73876467 [kJ/mol]
      Disp20 (OS)                  -3.70929957 [mEh]      -2.32762062 [kcal/mol]      -9.73876467 [kJ/mol]
      Exch-Disp20 (SS)              0.67653502 [mEh]       0.42453213 [kcal/mol]       1.77624244 [kJ/mol]
      Exch-Disp20 (OS)              0.35884464 [mEh]       0.22517841 [kcal/mol]       0.94214648 [kJ/mol]

  Total HF                         -1.97601558 [mEh]      -1.23996849 [kcal/mol]      -5.18802818 [kJ/mol]
  Total SAPT0                      -8.35923505 [mEh]      -5.24549919 [kcal/mol]     -21.94716860 [kJ/mol]

  Special recipe for scaled SAPT0 (see Manual):
    Electrostatics sSAPT0          -9.63485496 [mEh]      -6.04596277 [kcal/mol]     -25.29630822 [kJ/mol]
    Exchange sSAPT0                11.34886794 [mEh]       7.12152215 [kcal/mol]      29.79644868 [kJ/mol]
    Induction sSAPT0               -3.63148784 [mEh]      -2.27879302 [kcal/mol]      -9.53447000 [kJ/mol]
    Dispersion sSAPT0              -6.36606324 [mEh]      -3.99476499 [kcal/mol]     -16.71409673 [kJ/mol]
  Total sSAPT0                     -8.28353809 [mEh]      -5.19799863 [kcal/mol]     -21.74842627 [kJ/mol]
  --------------------------------------------------------------------------------------------------------

*** Psi4 exiting successfully. Buy a developer a beer!
