                               Psi4 1.3.2 release

  ==> Input File <==

--------------------------------------------------------------------------
# Any line starting with the # character is a comment line
#! Sample  computation

memory 22 gb

molecule Dimer {
0 1
 C   2.577749    0.486736    0.380085
 C   1.132834    0.185786    0.028718
 O   0.758877   -0.922192   -0.339903
 N   0.273475    1.229334    0.179657
 H  -0.711559    1.091435    0.002492
 H   0.599152    2.131891    0.471683
 C   3.539595   -0.485510   -0.283192
 H   3.487804   -0.400457   -1.367326
 H   4.562896   -0.286068    0.030678
 H   3.282082   -1.508297   -0.019840
 H   2.811674    1.518609    0.111118
 H   2.660584    0.420187    1.468029

 --
0 1
 C   -3.258856    0.983870   -0.242682
 C   -2.771720   -0.241546   -0.468919
 C   -2.526406   -1.269546    0.586008
 H   -3.414179    1.685472   -1.050734
 H   -3.526513    1.301241    0.757888
 H   -2.517325   -0.520330   -1.486483
 H   -1.471666   -1.549816    0.591061
 H   -2.805426   -0.896907    1.571106
 H   -3.102041   -2.173500    0.381841

units angstrom

no_reorient
symmetry c1
}

set globals{
  basis jun-cc-pvtz
}

energy('sapt0')

--------------------------------------------------------------------------

  //              Dimer HF             //
    Molecular point group: c1
  Charge       = 0
  Multiplicity = 1
  Basis Set: JUN-CC-PVTZ
    Blend: JUN-CC-PVTZ
  Basis Set: (JUN-CC-PVTZ AUX)
    Blend: JUN-CC-PVTZ-JKFIT
  @DF-RHF Final Energy:  -364.22819706902271
    Total Energy =                       -364.2281970690227126
  //            Monomer A HF           //
    Molecular point group: c1
  Multiplicity = 1
  Basis Set: JUN-CC-PVTZ
    Blend: JUN-CC-PVTZ
  Basis Set: (JUN-CC-PVTZ AUX)
    Blend: JUN-CC-PVTZ-JKFIT
  @DF-RHF Final Energy:  -247.10985074126489
    Total Energy =                       -247.1098507412648928
  //            Monomer B HF           //
    Molecular point group: c1

    Geometry (in Angstrom), charge = 0, multiplicity = 1:

       Center              X                  Y                   Z               Mass
    ------------   -----------------  -----------------  -----------------  -----------------
      Gh(C)           2.576529469299     0.493674522659     0.392663691643    12.000000000000
      Gh(C)           1.131614469299     0.192724522659     0.041296691643    12.000000000000
      Gh(O)           0.757657469299    -0.915253477341    -0.327324308357    15.994914619570
      Gh(N)           0.272255469299     1.236272522659     0.192235691643    14.003074004430
      Gh(H)          -0.712778530701     1.098373522659     0.015070691643     1.007825032230
      Gh(H)           0.597932469299     2.138829522659     0.484261691643     1.007825032230
      Gh(C)           3.538375469299    -0.478571477341    -0.270613308357    12.000000000000
      Gh(H)           3.486584469299    -0.393518477341    -1.354747308357     1.007825032230
      Gh(H)           4.561676469299    -0.279129477341     0.043256691643     1.007825032230
      Gh(H)           3.280862469299    -1.501358477341    -0.007261308357     1.007825032230
      Gh(H)           2.810454469299     1.525547522659     0.123696691643     1.007825032230
      Gh(H)           2.659364469299     0.427125522659     1.480607691643     1.007825032230
         C           -3.260075530701     0.990808522659    -0.230103308357    12.000000000000
         C           -2.772939530701    -0.234607477341    -0.456340308357    12.000000000000
         C           -2.527625530701    -1.262607477341     0.598586691643    12.000000000000
         H           -3.415398530701     1.692410522659    -1.038155308357     1.007825032230
         H           -3.527732530701     1.308179522659     0.770466691643     1.007825032230
         H           -2.518544530701    -0.513391477341    -1.473904308357     1.007825032230
         H           -1.472885530701    -1.542877477341     0.603639691643     1.007825032230
         H           -2.806645530701    -0.889968477341     1.583684691643     1.007825032230
         H           -3.103260530701    -2.166561477341     0.394419691643     1.007825032230

  Charge       = 0
  Multiplicity = 1
  Basis Set: JUN-CC-PVTZ
    Blend: JUN-CC-PVTZ
  Basis Set: (JUN-CC-PVTZ AUX)
    Blend: JUN-CC-PVTZ-JKFIT

    Orbital Energies [Eh]
    ---------------------

    Doubly Occupied:

       1A    -11.234499     2A    -11.220969     3A    -11.217663
       4A     -1.064675     5A     -0.933015     6A     -0.757654
       7A     -0.639458     8A     -0.582899     9A     -0.569641
      10A     -0.523483    11A     -0.492779    12A     -0.357215

  @DF-RHF Final Energy:  -117.11677759795255

   => Energetics <=

    Nuclear Repulsion Energy =             70.8446943561275901
    One-Electron Energy =                -296.7350449543847617
    Two-Electron Energy =                 108.7735730003046086
    Total Energy =                       -117.1167775979525487

  Dipole Moment: [D]
     X:     0.1386      Y:    -0.4066      Z:     0.0774     Total:     0.4364

    SAPT Results
  --------------------------------------------------------------------------------------------------------
    Electrostatics                 -9.36457500 [mEh]      -5.87635953 [kcal/mol]     -24.58668829 [kJ/mol]
      Elst10,r                     -9.36457500 [mEh]      -5.87635953 [kcal/mol]     -24.58668829 [kJ/mol]

    Exchange                       11.30282344 [mEh]       7.09262879 [kcal/mol]      29.67555886 [kJ/mol]
      Exch10                       11.30282344 [mEh]       7.09262879 [kcal/mol]      29.67555886 [kJ/mol]
      Exch10(S^2)                  11.24360743 [mEh]       7.05547018 [kcal/mol]      29.52008724 [kJ/mol]

    Induction                      -3.50697824 [mEh]      -2.20066207 [kcal/mol]      -9.20757011 [kJ/mol]
      Ind20,r                      -5.46857421 [mEh]      -3.43158212 [kcal/mol]     -14.35773960 [kJ/mol]
      Exch-Ind20,r                  3.40725277 [mEh]       2.13808339 [kcal/mol]       8.94574092 [kJ/mol]
      delta HF,r (2)               -1.44565681 [mEh]      -0.90716334 [kcal/mol]      -3.79557143 [kJ/mol]

    Dispersion                     -6.72715041 [mEh]      -4.22135062 [kcal/mol]     -17.66213098 [kJ/mol]
      Disp20                       -7.79748549 [mEh]      -4.89299602 [kcal/mol]     -20.47229533 [kJ/mol]
      Exch-Disp20                   1.07033508 [mEh]       0.67164540 [kcal/mol]       2.81016435 [kJ/mol]
      Disp20 (SS)                  -3.89874275 [mEh]      -2.44649801 [kcal/mol]     -10.23614767 [kJ/mol]
      Disp20 (OS)                  -3.89874275 [mEh]      -2.44649801 [kcal/mol]     -10.23614767 [kJ/mol]
      Exch-Disp20 (SS)              0.69751501 [mEh]       0.43769728 [kcal/mol]       1.83132542 [kJ/mol]
      Exch-Disp20 (OS)              0.37282006 [mEh]       0.23394812 [kcal/mol]       0.97883893 [kJ/mol]

  Total HF                         -1.56872981 [mEh]      -0.98439281 [kcal/mol]      -4.11869954 [kJ/mol]
  Total SAPT0                      -8.29588022 [mEh]      -5.20574343 [kcal/mol]     -21.78083052 [kJ/mol]

  Special recipe for scaled SAPT0 (see Manual):
    Electrostatics sSAPT0          -9.36457500 [mEh]      -5.87635953 [kcal/mol]     -24.58668829 [kJ/mol]
    Exchange sSAPT0                11.30282344 [mEh]       7.09262879 [kcal/mol]      29.67555886 [kJ/mol]
    Induction sSAPT0               -3.45285992 [mEh]      -2.16670231 [kcal/mol]      -9.06548246 [kJ/mol]
    Dispersion sSAPT0              -6.71014999 [mEh]      -4.21068269 [kcal/mol]     -17.61749637 [kJ/mol]
  Total sSAPT0                     -8.22476147 [mEh]      -5.16111574 [kcal/mol]     -21.59410826 [kJ/mol]
  --------------------------------------------------------------------------------------------------------

*** Psi4 exiting successfully. Buy a developer a beer!
