                               Psi4 1.3.2 release

  ==> Input File <==

--------------------------------------------------------------------------
# Any line starting with the # character is a comment line
#! Sample  computation

memory 22 gb

molecule Dimer {
0 1
 C  -3.051486    0.138663   -0.161433
 C  -1.574587   -0.025617    0.109032
 O  -1.046649    0.427370    1.118236
 N  -0.870872   -0.702467   -0.838393
 H  -3.603005   -0.385473    0.616771
 H  -3.298844    1.195100   -0.088677
 H  -3.356655   -0.239460   -1.134569
 H   0.110553   -0.881658   -0.679517
 H  -1.325625   -1.112669   -1.632013

 --
0 1
 C   2.174062   -1.034258    0.643759
 C   2.562495   -0.133007   -0.266203
 C   2.036297    1.265358   -0.342596
 H   2.600477   -2.028010    0.662347
 H   1.427268   -0.782992    1.387418
 H   3.314544   -0.419452   -0.995232
 H   1.634401    1.476690   -1.335266
 H   1.247921    1.424694    0.391681
 H   2.837578    1.984711   -0.165434

units angstrom

no_reorient
symmetry c1
}

set globals{
  basis jun-cc-pvtz
}

energy('sapt0')

--------------------------------------------------------------------------

  //              Dimer HF             //
    Molecular point group: c1
  Charge       = 0
  Multiplicity = 1
  Basis Set: JUN-CC-PVTZ
    Blend: JUN-CC-PVTZ
  Basis Set: (JUN-CC-PVTZ AUX)
    Blend: JUN-CC-PVTZ-JKFIT
  @DF-RHF Final Energy:  -325.17960618254625
    Total Energy =                       -325.1796061825462516
  //            Monomer A HF           //
    Molecular point group: c1
  Multiplicity = 1
  Basis Set: JUN-CC-PVTZ
    Blend: JUN-CC-PVTZ
  Basis Set: (JUN-CC-PVTZ AUX)
    Blend: JUN-CC-PVTZ-JKFIT
  @DF-RHF Final Energy:  -208.06195125612592
    Total Energy =                       -208.0619512561259228
  //            Monomer B HF           //
    Molecular point group: c1

    Geometry (in Angstrom), charge = 0, multiplicity = 1:

       Center              X                  Y                   Z               Mass
    ------------   -----------------  -----------------  -----------------  -----------------
      Gh(C)          -3.035919446320     0.140977809775    -0.190527272303    12.000000000000
      Gh(C)          -1.559020446320    -0.023302190225     0.079937727697    12.000000000000
      Gh(O)          -1.031082446320     0.429684809775     1.089141727697    15.994914619570
      Gh(N)          -0.855305446320    -0.700152190225    -0.867487272303    14.003074004430
      Gh(H)          -3.587438446320    -0.383158190225     0.587676727697     1.007825032230
      Gh(H)          -3.283277446320     1.197414809775    -0.117771272303     1.007825032230
      Gh(H)          -3.341088446320    -0.237145190225    -1.163663272303     1.007825032230
      Gh(H)           0.126119553680    -0.879343190225    -0.708611272303     1.007825032230
      Gh(H)          -1.310058446320    -1.110354190225    -1.661107272303     1.007825032230
         C            2.189628553680    -1.031943190225     0.614664727697    12.000000000000
         C            2.578061553680    -0.130692190225    -0.295297272303    12.000000000000
         C            2.051863553680     1.267672809775    -0.371690272303    12.000000000000
         H            2.616043553680    -2.025695190225     0.633252727697     1.007825032230
         H            1.442834553680    -0.780677190225     1.358323727697     1.007825032230
         H            3.330110553680    -0.417137190225    -1.024326272303     1.007825032230
         H            1.649967553680     1.479004809775    -1.364360272303     1.007825032230
         H            1.263487553680     1.427008809775     0.362586727697     1.007825032230
         H            2.853144553680     1.987025809775    -0.194528272303     1.007825032230

  Charge       = 0
  Multiplicity = 1
  Basis Set: JUN-CC-PVTZ
    Blend: JUN-CC-PVTZ
  Basis Set: (JUN-CC-PVTZ AUX)
    Blend: JUN-CC-PVTZ-JKFIT

    Orbital Energies [Eh]
    ---------------------

    Doubly Occupied:

       1A    -11.234834     2A    -11.221023     3A    -11.217907
       4A     -1.064354     5A     -0.932462     6A     -0.757672
       7A     -0.639835     8A     -0.582095     9A     -0.568352
      10A     -0.523461    11A     -0.493484    12A     -0.357301

  @DF-RHF Final Energy:  -117.11669438949386

   => Energetics <=

    Nuclear Repulsion Energy =             70.8235572645948395
    One-Electron Energy =                -296.6949453967982890
    Two-Electron Energy =                 108.7546937427095770
    Total Energy =                       -117.1166943894938584

  Dipole Moment: [D]
     X:     0.0377      Y:     0.3784      Z:    -0.2016     Total:     0.4304

    SAPT Results
  --------------------------------------------------------------------------------------------------------
    Electrostatics                 -9.63375691 [mEh]      -6.04527373 [kcal/mol]     -25.29342528 [kJ/mol]
      Elst10,r                     -9.63375691 [mEh]      -6.04527373 [kcal/mol]     -25.29342528 [kJ/mol]

    Exchange                       12.16710873 [mEh]       7.63497599 [kcal/mol]      31.94473956 [kJ/mol]
      Exch10                       12.16710873 [mEh]       7.63497599 [kcal/mol]      31.94473956 [kJ/mol]
      Exch10(S^2)                  12.09794316 [mEh]       7.59157395 [kcal/mol]      31.76314539 [kJ/mol]

    Induction                      -3.49388874 [mEh]      -2.19244829 [kcal/mol]      -9.17320363 [kJ/mol]
      Ind20,r                      -5.69477294 [mEh]      -3.57352397 [kcal/mol]     -14.95162430 [kJ/mol]
      Exch-Ind20,r                  3.66749455 [mEh]       2.30138758 [kcal/mol]       9.62900562 [kJ/mol]
      delta HF,r (2)               -1.46661036 [mEh]      -0.92031189 [kcal/mol]      -3.85058496 [kJ/mol]

    Dispersion                     -7.54565747 [mEh]      -4.73497155 [kcal/mol]     -19.81112096 [kJ/mol]
      Disp20                       -8.72049458 [mEh]      -5.47219296 [kcal/mol]     -22.89565536 [kJ/mol]
      Exch-Disp20                   1.17483710 [mEh]       0.73722141 [kcal/mol]       3.08453439 [kJ/mol]
      Disp20 (SS)                  -4.36024729 [mEh]      -2.73609648 [kcal/mol]     -11.44782768 [kJ/mol]
      Disp20 (OS)                  -4.36024729 [mEh]      -2.73609648 [kcal/mol]     -11.44782768 [kJ/mol]
      Exch-Disp20 (SS)              0.76119843 [mEh]       0.47765922 [kcal/mol]       1.99852619 [kJ/mol]
      Exch-Disp20 (OS)              0.41363868 [mEh]       0.25956219 [kcal/mol]       1.08600820 [kJ/mol]

  Total HF                         -0.96053693 [mEh]      -0.60274602 [kcal/mol]      -2.52188935 [kJ/mol]
  Total SAPT0                      -8.50619440 [mEh]      -5.33771757 [kcal/mol]     -22.33301032 [kJ/mol]

  Special recipe for scaled SAPT0 (see Manual):
    Electrostatics sSAPT0          -9.63375691 [mEh]      -6.04527373 [kcal/mol]     -25.29342528 [kJ/mol]
    Exchange sSAPT0                12.16710873 [mEh]       7.63497599 [kcal/mol]      31.94473956 [kJ/mol]
    Induction sSAPT0               -3.43062576 [mEh]      -2.15275016 [kcal/mol]      -9.00710669 [kJ/mol]
    Dispersion sSAPT0              -7.52539195 [mEh]      -4.72225474 [kcal/mol]     -19.75791384 [kJ/mol]
  Total sSAPT0                     -8.42266589 [mEh]      -5.28530264 [kcal/mol]     -22.11370625 [kJ/mol]
  --------------------------------------------------------------------------------------------------------

*** Psi4 exiting successfully. Buy a developer a beer!
