                               Psi4 1.3.2 release

  ==> Input File <==

--------------------------------------------------------------------------
# Any line starting with the # character is a comment line
#! Sample  computation

memory 22 gb

molecule Dimer {
0 1
 C -3.041082    0.536715   -0.000014
 C -1.535097    0.369520   -0.000234
 O -0.808024    1.371753   -0.000555
 N -1.043214   -0.881049   -0.000065
 H -0.029765   -1.028592   -0.000166
 H -1.660896   -1.670937    0.000233
 C -3.881044   -0.732584    0.000412
 H -3.690462   -1.339325    0.885959
 H -4.940667   -0.482939    0.000547
 H -3.690778   -1.339711   -0.884937
 H -3.271503    1.152606    0.870217
 H -3.271799    1.152216   -0.870442

 --
0 1
 C  4.035177   -0.296288    0.000502
 C  2.533290   -0.156774    0.000004
 O  1.810468   -1.160543   -0.000397
 N  2.039248    1.094325    0.000061
 H  4.554451    0.659183    0.000145
 H  4.327624   -0.866947    0.879389
 H  4.328133   -0.867925   -0.877571
 H  1.025739    1.244849   -0.000155
 H  2.660664    1.881375    0.000402

units angstrom

no_reorient
symmetry c1
}

set globals{
  basis jun-cc-pvtz
}

energy('sapt0')

--------------------------------------------------------------------------

  //              Dimer HF             //
    Molecular point group: c1
  Charge       = 0
  Multiplicity = 1
  Basis Set: JUN-CC-PVTZ
    Blend: JUN-CC-PVTZ
  Basis Set: (JUN-CC-PVTZ AUX)
    Blend: JUN-CC-PVTZ-JKFIT
  @DF-RHF Final Energy:  -455.18622053709413
    Total Energy =                       -455.1862205370941865
  //            Monomer A HF           //
    Molecular point group: c1
  Multiplicity = 1
  Basis Set: JUN-CC-PVTZ
    Blend: JUN-CC-PVTZ
  Basis Set: (JUN-CC-PVTZ AUX)
    Blend: JUN-CC-PVTZ-JKFIT
  @DF-RHF Final Energy:  -247.10583920929290
    Total Energy =                       -247.1058392092928671
  //            Monomer B HF           //
    Molecular point group: c1

    Geometry (in Angstrom), charge = 0, multiplicity = 1:

       Center              X                  Y                   Z               Mass
    ------------   -----------------  -----------------  -----------------  -----------------
      Gh(C)          -3.068552531801     0.525404966967     0.000013207509    12.000000000000
      Gh(C)          -1.562567531801     0.358209966967    -0.000206792491    12.000000000000
      Gh(O)          -0.835494531801     1.360442966967    -0.000527792491    15.994914619570
      Gh(N)          -1.070684531801    -0.892359033033    -0.000037792491    14.003074004430
      Gh(H)          -0.057235531801    -1.039902033033    -0.000138792491     1.007825032230
      Gh(H)          -1.688366531801    -1.682247033033     0.000260207509     1.007825032230
      Gh(C)          -3.908514531801    -0.743894033033     0.000439207509    12.000000000000
      Gh(H)          -3.717932531801    -1.350635033033     0.885986207509     1.007825032230
      Gh(H)          -4.968137531801    -0.494249033033     0.000574207509     1.007825032230
      Gh(H)          -3.718248531801    -1.351021033033    -0.884909792491     1.007825032230
      Gh(H)          -3.298973531801     1.141295966967     0.870244207509     1.007825032230
      Gh(H)          -3.299269531801     1.140905966967    -0.870414792491     1.007825032230
         C            4.007706468199    -0.307598033033     0.000529207509    12.000000000000
         C            2.505819468199    -0.168084033033     0.000031207509    12.000000000000
         O            1.782997468199    -1.171853033033    -0.000369792491    15.994914619570
         N            2.011777468199     1.083014966967     0.000088207509    14.003074004430
         H            4.526980468199     0.647872966967     0.000172207509     1.007825032230
         H            4.300153468199    -0.878257033033     0.879416207509     1.007825032230
         H            4.300662468199    -0.879235033033    -0.877543792491     1.007825032230
         H            0.998268468199     1.233538966967    -0.000127792491     1.007825032230
         H            2.633193468199     1.870064966967     0.000429207509     1.007825032230

  Charge       = 0
  Multiplicity = 1
  Basis Set: JUN-CC-PVTZ
    Blend: JUN-CC-PVTZ
  Basis Set: (JUN-CC-PVTZ AUX)
    Blend: JUN-CC-PVTZ-JKFIT

    Orbital Energies [Eh]
    ---------------------

    Doubly Occupied:

       1A    -20.510771     2A    -15.594271     3A    -11.353217
       4A    -11.238318     5A     -1.366803     6A     -1.218045
       7A     -1.006307     8A     -0.804626     9A     -0.730352
      10A     -0.662759    11A     -0.615550    12A     -0.577737
      13A     -0.564990    14A     -0.524136    15A     -0.421052
      16A     -0.413263

  @DF-RHF Final Energy:  -208.06020536674274

   => Energetics <=

    Nuclear Repulsion Energy =            121.7571284828152613
    One-Electron Energy =                -524.4302755571932266
    Two-Electron Energy =                 194.6129417076352581
    Total Energy =                       -208.0602053667427356

  Dipole Moment: [D]
     X:     2.0153      Y:     3.9580      Z:     0.0016     Total:     4.4416

    SAPT Results
  --------------------------------------------------------------------------------------------------------
    Electrostatics                -42.54617306 [mEh]     -26.69812667 [kcal/mol]    -111.70496197 [kJ/mol]
      Elst10,r                    -42.54617306 [mEh]     -26.69812667 [kcal/mol]    -111.70496197 [kJ/mol]

    Exchange                       39.03491605 [mEh]      24.49477963 [kcal/mol]     102.48615798 [kJ/mol]
      Exch10                       39.03491605 [mEh]      24.49477963 [kcal/mol]     102.48615798 [kJ/mol]
      Exch10(S^2)                  38.53707608 [mEh]      24.18238033 [kcal/mol]     101.17907931 [kJ/mol]

    Induction                     -16.66470406 [mEh]     -10.45725967 [kcal/mol]     -43.75317447 [kJ/mol]
      Ind20,r                     -19.85385571 [mEh]     -12.45848255 [kcal/mol]     -52.12629098 [kJ/mol]
      Exch-Ind20,r                 10.27351658 [mEh]       6.44672899 [kcal/mol]      26.97311407 [kJ/mol]
      delta HF,r (2)               -7.08436493 [mEh]      -4.44550611 [kcal/mol]     -18.59999757 [kJ/mol]

    Dispersion                    -11.27216987 [mEh]      -7.07339339 [kcal/mol]     -29.59507792 [kJ/mol]
      Disp20                      -13.95890278 [mEh]      -8.75934374 [kcal/mol]     -36.64909420 [kJ/mol]
      Exch-Disp20                   2.68673291 [mEh]       1.68595035 [kcal/mol]       7.05401628 [kJ/mol]
      Disp20 (SS)                  -6.97945139 [mEh]      -4.37967187 [kcal/mol]     -18.32454710 [kJ/mol]
      Disp20 (OS)                  -6.97945139 [mEh]      -4.37967187 [kcal/mol]     -18.32454710 [kJ/mol]
      Exch-Disp20 (SS)              1.69787588 [mEh]       1.06543320 [kcal/mol]       4.45777252 [kJ/mol]
      Exch-Disp20 (OS)              0.98885702 [mEh]       0.62051715 [kcal/mol]       2.59624375 [kJ/mol]

  Total HF                        -20.17596106 [mEh]     -12.66060671 [kcal/mol]     -52.97197846 [kJ/mol]
  Total SAPT0                     -31.44813093 [mEh]     -19.73400009 [kcal/mol]     -82.56705639 [kJ/mol]

  Special recipe for scaled SAPT0 (see Manual):
    Electrostatics sSAPT0         -42.54617306 [mEh]     -26.69812667 [kcal/mol]    -111.70496197 [kJ/mol]
    Exchange sSAPT0                39.03491605 [mEh]      24.49477963 [kcal/mol]     102.48615798 [kJ/mol]
    Induction sSAPT0              -16.26138409 [mEh]     -10.20417257 [kcal/mol]     -42.69425804 [kJ/mol]
    Dispersion sSAPT0             -11.16669352 [mEh]      -7.00720598 [kcal/mol]     -29.31814981 [kJ/mol]
  Total sSAPT0                    -30.93933461 [mEh]     -19.41472558 [kcal/mol]     -81.23121183 [kJ/mol]
  --------------------------------------------------------------------------------------------------------

*** Psi4 exiting successfully. Buy a developer a beer!
