                               Psi4 1.3.2 release

  ==> Input File <==

--------------------------------------------------------------------------
# Any line starting with the # character is a comment line
#! Sample  computation

memory 22 gb

molecule Dimer {

0 1
 C    3.56008100    0.05653800    0.00132900
 C    2.05181600    0.06350500   -0.00017900
 O    1.42945900    1.13226000   -0.00081900
 N    1.43889900   -1.13417100   -0.00047800
 H    3.98409900   -0.94483000   -0.00043900
 H    3.90772900    0.59861200   -0.87553000
 H    3.90587100    0.59455200    0.88145000
 H    0.41627800   -1.18579400   -0.00126600
 H    1.98081500   -1.97792100   -0.00021000

 --
0 1
 C    -3.56005100   -0.05672700    0.00147500
 C    -2.05178100   -0.06349500   -0.00013400
 O    -1.42931100   -1.13218400   -0.00098700
 N    -1.43905900    1.13428300   -0.00076900
 H    -3.98421100    0.94458100    0.00310200
 H    -3.90760500   -0.59573800   -0.87733200
 H    -3.90578500   -0.59791100    0.87964900
 H    -0.41647100    1.18622100   -0.00162600
 H    -1.98116800    1.97791000    0.00043300

units angstrom

no_reorient
symmetry c1
}

set globals{
  basis jun-cc-pVTZ
  scf_type DF
  freeze_core True
}

energy('sapt0')

--------------------------------------------------------------------------

  //              Dimer HF             //
    Molecular point group: c1
  Charge       = 0
  Multiplicity = 1
  Basis Set: JUN-CC-PVTZ
    Blend: JUN-CC-PVTZ
  Basis Set: (JUN-CC-PVTZ AUX)
    Blend: JUN-CC-PVTZ-JKFIT
  @DF-RHF Final Energy:  -416.14054834479015
    Total Energy =                       -416.1405483447900906
  //            Monomer A HF           //
    Molecular point group: c1
  Multiplicity = 1
  Basis Set: JUN-CC-PVTZ
    Blend: JUN-CC-PVTZ
  Basis Set: (JUN-CC-PVTZ AUX)
    Blend: JUN-CC-PVTZ-JKFIT
  @DF-RHF Final Energy:  -208.06026594167622
    Total Energy =                       -208.0602659416762208
  //            Monomer B HF           //
    Molecular point group: c1

    Geometry (in Angstrom), charge = 0, multiplicity = 1:

       Center              X                  Y                   Z               Mass
    ------------   -----------------  -----------------  -----------------  -----------------
      Gh(C)           3.560077144375     0.056535328211     0.001398119582    12.000000000000
      Gh(C)           2.051812144375     0.063502328211    -0.000109880418    12.000000000000
      Gh(O)           1.429455144375     1.132257328211    -0.000749880418    15.994914619570
      Gh(N)           1.438895144375    -1.134173671789    -0.000408880418    14.003074004430
      Gh(H)           3.984095144375    -0.944832671789    -0.000369880418     1.007825032230
      Gh(H)           3.907725144375     0.598609328211    -0.875460880418     1.007825032230
      Gh(H)           3.905867144375     0.594549328211     0.881519119582     1.007825032230
      Gh(H)           0.416274144375    -1.185796671789    -0.001196880418     1.007825032230
      Gh(H)           1.980811144375    -1.977923671789    -0.000140880418     1.007825032230
         C           -3.560054855625    -0.056729671789     0.001544119582    12.000000000000
         C           -2.051784855625    -0.063497671789    -0.000064880418    12.000000000000
         O           -1.429314855625    -1.132186671789    -0.000917880418    15.994914619570
         N           -1.439062855625     1.134280328211    -0.000699880418    14.003074004430
         H           -3.984214855625     0.944578328211     0.003171119582     1.007825032230
         H           -3.907608855625    -0.595740671789    -0.877262880418     1.007825032230
         H           -3.905788855625    -0.597913671789     0.879718119582     1.007825032230
         H           -0.416474855625     1.186218328211    -0.001556880418     1.007825032230
         H           -1.981171855625     1.977907328211     0.000502119582     1.007825032230

  Charge       = 0
  Multiplicity = 1
  Basis Set: JUN-CC-PVTZ
    Blend: JUN-CC-PVTZ
  Basis Set: (JUN-CC-PVTZ AUX)
    Blend: JUN-CC-PVTZ-JKFIT

    Orbital Energies [Eh]
    ---------------------

    Doubly Occupied:

       1A    -20.510847     2A    -15.594154     3A    -11.353246
       4A    -11.238318     5A     -1.366929     6A     -1.218029
       7A     -1.006360     8A     -0.804649     9A     -0.730378
      10A     -0.662821    11A     -0.615569    12A     -0.577866
      13A     -0.564998    14A     -0.524133    15A     -0.421110
      16A     -0.413303

  @DF-RHF Final Energy:  -208.06026575220596

   => Energetics <=

    Nuclear Repulsion Energy =            121.7600059791832621
    One-Electron Energy =                -524.4351228977725441
    Two-Electron Energy =                 194.6148511663833460
    Total Energy =                       -208.0602657522059644

  Dipole Moment: [D]
     X:    -1.6244      Y:     4.1319      Z:     0.0034     Total:     4.4397

    SAPT Results
  --------------------------------------------------------------------------------------------------------
    Electrostatics                -41.97777436 [mEh]     -26.34145110 [kcal/mol]    -110.21263140 [kJ/mol]
      Elst10,r                    -41.97777436 [mEh]     -26.34145110 [kcal/mol]    -110.21263140 [kJ/mol]

    Exchange                       38.27233619 [mEh]      24.01625354 [kcal/mol]     100.48400482 [kJ/mol]
      Exch10                       38.27233619 [mEh]      24.01625354 [kcal/mol]     100.48400482 [kJ/mol]
      Exch10(S^2)                  37.79353277 [mEh]      23.71579986 [kcal/mol]      99.22690662 [kJ/mol]

    Induction                     -16.31121274 [mEh]     -10.23544052 [kcal/mol]     -42.82508314 [kJ/mol]
      Ind20,r                     -19.42868466 [mEh]     -12.19168369 [kcal/mol]     -51.01000455 [kJ/mol]
      Exch-Ind20,r                 10.03752340 [mEh]       6.29864103 [kcal/mol]      26.35351406 [kJ/mol]
      delta HF,r (2)               -6.92005147 [mEh]      -4.34239786 [kcal/mol]     -18.16859264 [kJ/mol]

    Dispersion                    -11.05772802 [mEh]      -6.93882909 [kcal/mol]     -29.03206092 [kJ/mol]
      Disp20                      -13.67745917 [mEh]      -8.58273521 [kcal/mol]     -35.91016411 [kJ/mol]
      Exch-Disp20                   2.61973115 [mEh]       1.64390612 [kcal/mol]       6.87810320 [kJ/mol]
      Disp20 (SS)                  -6.83872959 [mEh]      -4.29136760 [kcal/mol]     -17.95508206 [kJ/mol]
      Disp20 (OS)                  -6.83872959 [mEh]      -4.29136760 [kcal/mol]     -17.95508206 [kJ/mol]
      Exch-Disp20 (SS)              1.65651189 [mEh]       1.03947691 [kcal/mol]       4.34917138 [kJ/mol]
      Exch-Disp20 (OS)              0.96321926 [mEh]       0.60442921 [kcal/mol]       2.52893182 [kJ/mol]

  Total HF                        -20.01665091 [mEh]     -12.56063808 [kcal/mol]     -52.55370972 [kJ/mol]
  Total SAPT0                     -31.07437893 [mEh]     -19.49946717 [kcal/mol]     -81.58577064 [kJ/mol]

  Special recipe for scaled SAPT0 (see Manual):
    Electrostatics sSAPT0         -41.97777436 [mEh]     -26.34145110 [kcal/mol]    -110.21263140 [kJ/mol]
    Exchange sSAPT0                38.27233619 [mEh]      24.01625354 [kcal/mol]     100.48400482 [kJ/mol]
    Induction sSAPT0              -15.92486533 [mEh]      -9.99300386 [kcal/mol]     -41.81072815 [kJ/mol]
    Dispersion sSAPT0             -10.95689375 [mEh]      -6.87555463 [kcal/mol]     -28.76732058 [kJ/mol]
  Total sSAPT0                    -30.58719725 [mEh]     -19.19375605 [kcal/mol]     -80.30667531 [kJ/mol]
  --------------------------------------------------------------------------------------------------------

*** Psi4 exiting successfully. Buy a developer a beer!
