                               Psi4 1.3.2 release

  ==> Input File <==

--------------------------------------------------------------------------
# Any line starting with the # character is a comment line
#! Sample  computation

memory 22 gb

molecule Dimer {

0 1
 C    -0.04023800    2.03222200    0.00000000
 O    -1.12590900    1.45148000    0.00000000
 N     1.15723000    1.42909800    0.00000000
 H     1.99042300    1.98867800    0.00000000
 H     1.22445600    0.40831900    0.00000000
 H     0.01519100    3.12870200    0.00000000

 --
0 1
 C     0.04023000   -2.03223800    0.00000000
 O     1.12591200   -1.45151700    0.00000000
 N    -1.15722300   -1.42908500    0.00000000
 H    -1.99043100   -1.98864200    0.00000000
 H    -1.22441900   -0.40830000    0.00000000
 H    -0.01522100   -3.12871800    0.00000000

units angstrom

no_reorient
symmetry c1
}

set globals{
  basis jun-cc-pVTZ
  scf_type DF
  freeze_core True
}

energy('sapt0')

--------------------------------------------------------------------------

  //              Dimer HF             //
    Molecular point group: c1
  Charge       = 0
  Multiplicity = 1
  Basis Set: JUN-CC-PVTZ
    Blend: JUN-CC-PVTZ
  Basis Set: (JUN-CC-PVTZ AUX)
    Blend: JUN-CC-PVTZ-JKFIT
  @DF-RHF Final Energy:  -338.02403733860956
    Total Energy =                       -338.0240373386095598
  //            Monomer A HF           //
    Molecular point group: c1
  Multiplicity = 1
  Basis Set: JUN-CC-PVTZ
    Blend: JUN-CC-PVTZ
  Basis Set: (JUN-CC-PVTZ AUX)
    Blend: JUN-CC-PVTZ-JKFIT
  @DF-RHF Final Energy:  -169.00209966437384
    Total Energy =                       -169.0020996643738442
  //            Monomer B HF           //
    Molecular point group: c1

    Geometry (in Angstrom), charge = 0, multiplicity = 1:

       Center              X                  Y                   Z               Mass
    ------------   -----------------  -----------------  -----------------  -----------------
      Gh(C)          -0.040238544168     2.032228246651     0.000000000000    12.000000000000
      Gh(O)          -1.125909544168     1.451486246651     0.000000000000    15.994914619570
      Gh(N)           1.157229455832     1.429104246651     0.000000000000    14.003074004430
      Gh(H)           1.990422455832     1.988684246651     0.000000000000     1.007825032230
      Gh(H)           1.224455455832     0.408325246651     0.000000000000     1.007825032230
      Gh(H)           0.015190455832     3.128708246651     0.000000000000     1.007825032230
         C            0.040229455832    -2.032231753349     0.000000000000    12.000000000000
         O            1.125911455832    -1.451510753349     0.000000000000    15.994914619570
         N           -1.157223544168    -1.429078753349     0.000000000000    14.003074004430
         H           -1.990431544168    -1.988635753349     0.000000000000     1.007825032230
         H           -1.224419544168    -0.408293753349     0.000000000000     1.007825032230
         H           -0.015221544168    -3.128711753349     0.000000000000     1.007825032230

  Charge       = 0
  Multiplicity = 1
  Basis Set: JUN-CC-PVTZ
    Blend: JUN-CC-PVTZ
  Basis Set: (JUN-CC-PVTZ AUX)
    Blend: JUN-CC-PVTZ-JKFIT

    Orbital Energies [Eh]
    ---------------------

    Doubly Occupied:

       1A    -20.526528     2A    -15.602978     3A    -11.356987
       4A     -1.374710     5A     -1.226953     6A     -0.854983
       7A     -0.756005     8A     -0.677303     9A     -0.601725
      10A     -0.571200    11A     -0.434958    12A     -0.421427

  @DF-RHF Final Energy:  -169.00209950216785

   => Energetics <=

    Nuclear Repulsion Energy =             71.0869611683225173
    One-Electron Energy =                -371.3666037803326390
    Two-Electron Energy =                 131.2775431098422416
    Total Energy =                       -169.0020995021678516

  Dipole Moment: [D]
     X:    -4.3831      Y:    -1.0006      Z:    -0.0000     Total:     4.4959

    SAPT Results
  --------------------------------------------------------------------------------------------------------
    Electrostatics                -40.32483702 [mEh]     -25.30421726 [kcal/mol]    -105.87284501 [kJ/mol]
      Elst10,r                    -40.32483702 [mEh]     -25.30421726 [kcal/mol]    -105.87284501 [kJ/mol]

    Exchange                       36.03215285 [mEh]      22.61051727 [kcal/mol]      94.60240427 [kJ/mol]
      Exch10                       36.03215285 [mEh]      22.61051727 [kcal/mol]      94.60240427 [kJ/mol]
      Exch10(S^2)                  35.59942344 [mEh]      22.33897547 [kcal/mol]      93.46627336 [kJ/mol]

    Induction                     -15.54548789 [mEh]      -9.75494093 [kcal/mol]     -40.81467284 [kJ/mol]
      Ind20,r                     -18.47497379 [mEh]     -11.59322108 [kcal/mol]     -48.50603701 [kJ/mol]
      Exch-Ind20,r                  9.50081166 [mEh]       5.96184933 [kcal/mol]      24.94437759 [kJ/mol]
      delta HF,r (2)               -6.57132577 [mEh]      -4.12356917 [kcal/mol]     -17.25301342 [kJ/mol]

    Dispersion                    -10.40850150 [mEh]      -6.53143330 [kcal/mol]     -27.32751693 [kJ/mol]
      Disp20                      -12.82821970 [mEh]      -8.04982940 [kcal/mol]     -33.68048619 [kJ/mol]
      Exch-Disp20                   2.41971820 [mEh]       1.51839609 [kcal/mol]       6.35296926 [kJ/mol]
      Disp20 (SS)                  -6.41410985 [mEh]      -4.02491470 [kcal/mol]     -16.84024310 [kJ/mol]
      Disp20 (OS)                  -6.41410985 [mEh]      -4.02491470 [kcal/mol]     -16.84024310 [kJ/mol]
      Exch-Disp20 (SS)              1.53274025 [mEh]       0.96180903 [kcal/mol]       4.02420897 [kJ/mol]
      Exch-Disp20 (OS)              0.88697795 [mEh]       0.55658707 [kcal/mol]       2.32876029 [kJ/mol]

  Total HF                        -19.83817207 [mEh]     -12.44864092 [kcal/mol]     -52.08511359 [kJ/mol]
  Total SAPT0                     -30.24667357 [mEh]     -18.98007422 [kcal/mol]     -79.41263052 [kJ/mol]

  Special recipe for scaled SAPT0 (see Manual):
    Electrostatics sSAPT0         -40.32483702 [mEh]     -25.30421726 [kcal/mol]    -105.87284501 [kJ/mol]
    Exchange sSAPT0                36.03215285 [mEh]      22.61051727 [kcal/mol]      94.60240427 [kJ/mol]
    Induction sSAPT0              -15.19479756 [mEh]      -9.53487942 [kcal/mol]     -39.89393550 [kJ/mol]
    Dispersion sSAPT0             -10.31918579 [mEh]      -6.47538684 [kcal/mol]     -27.09301856 [kJ/mol]
  Total sSAPT0                    -29.80666753 [mEh]     -18.70396625 [kcal/mol]     -78.25739481 [kJ/mol]
  --------------------------------------------------------------------------------------------------------

*** Psi4 exiting successfully. Buy a developer a beer!
