                               Psi4 1.3.2 release

  ==> Input File <==

--------------------------------------------------------------------------
# Any line starting with the # character is a comment line
#! Sample  computation

memory 22 gb

molecule Dimer {
0 1
 C  2.487676    0.604521    0.000299
 C  0.991376    0.368178    0.000124
 O  0.218688    1.335600    0.000097
 N  0.558575   -0.904348   -0.000075
 H -0.444636   -1.100787   -0.000209
 H  1.212163   -1.664800   -0.000138
 C  3.385156   -0.624743   -0.000176
 H  3.223216   -1.239415   -0.885944
 H  4.431995   -0.326206   -0.000081
 H  3.223263   -1.240076    0.885143
 H  2.689461    1.230644   -0.869728
 H  2.689364    1.229885    0.870898

 --
0 1
 C  -3.033258   -0.319376   -0.000083
 O  -2.305221   -1.312714   -0.000353
 N  -2.603784    0.950228    0.000176
 H  -3.275466    1.696020    0.000342
 H  -1.599437    1.158242    0.000162
 H  -4.126894   -0.419235   -0.000090

units angstrom

no_reorient
symmetry c1
}

set globals{
  basis jun-cc-pvtz
}

energy('sapt0')

--------------------------------------------------------------------------

  //              Dimer HF             //
    Molecular point group: c1
  Charge       = 0
  Multiplicity = 1
  Basis Set: JUN-CC-PVTZ
    Blend: JUN-CC-PVTZ
  Basis Set: (JUN-CC-PVTZ AUX)
    Blend: JUN-CC-PVTZ-JKFIT
  @DF-RHF Final Energy:  -416.12804887855248
    Total Energy =                       -416.1280488785524767
  //            Monomer A HF           //
    Molecular point group: c1
  Multiplicity = 1
  Basis Set: JUN-CC-PVTZ
    Blend: JUN-CC-PVTZ
  Basis Set: (JUN-CC-PVTZ AUX)
    Blend: JUN-CC-PVTZ-JKFIT
  @DF-RHF Final Energy:  -247.10593046919726
    Total Energy =                       -247.1059304691972329
  //            Monomer B HF           //
    Molecular point group: c1

    Geometry (in Angstrom), charge = 0, multiplicity = 1:

       Center              X                  Y                   Z               Mass
    ------------   -----------------  -----------------  -----------------  -----------------
      Gh(C)           2.555056671215     0.598842664670     0.000302003278    12.000000000000
      Gh(C)           1.058756671215     0.362499664670     0.000127003278    12.000000000000
      Gh(O)           0.286068671215     1.329921664670     0.000100003278    15.994914619570
      Gh(N)           0.625955671215    -0.910026335330    -0.000071996722    14.003074004430
      Gh(H)          -0.377255328785    -1.106465335330    -0.000205996722     1.007825032230
      Gh(H)           1.279543671215    -1.670478335330    -0.000134996722     1.007825032230
      Gh(C)           3.452536671215    -0.630421335330    -0.000172996722    12.000000000000
      Gh(H)           3.290596671215    -1.245093335330    -0.885940996722     1.007825032230
      Gh(H)           4.499375671215    -0.331884335330    -0.000077996722     1.007825032230
      Gh(H)           3.290643671215    -1.245754335330     0.885146003278     1.007825032230
      Gh(H)           2.756841671215     1.224965664670    -0.869724996722     1.007825032230
      Gh(H)           2.756744671215     1.224206664670     0.870901003278     1.007825032230
         C           -2.965877328785    -0.325054335330    -0.000079996722    12.000000000000
         O           -2.237840328785    -1.318392335330    -0.000349996722    15.994914619570
         N           -2.536403328785     0.944549664670     0.000179003278    14.003074004430
         H           -3.208085328785     1.690341664670     0.000345003278     1.007825032230
         H           -1.532056328785     1.152563664670     0.000165003278     1.007825032230
         H           -4.059513328785    -0.424913335330    -0.000086996722     1.007825032230

  Charge       = 0
  Multiplicity = 1
  Basis Set: JUN-CC-PVTZ
    Blend: JUN-CC-PVTZ
  Basis Set: (JUN-CC-PVTZ AUX)
    Blend: JUN-CC-PVTZ-JKFIT

    Orbital Energies [Eh]
    ---------------------

    Doubly Occupied:

       1A    -20.526344     2A    -15.603247     3A    -11.356906
       4A     -1.374468     5A     -1.226768     6A     -0.854442
       7A     -0.756077     8A     -0.676896     9A     -0.601434
      10A     -0.571170    11A     -0.434837    12A     -0.421286

  @DF-RHF Final Energy:  -169.00191476499199

   => Energetics <=

    Nuclear Repulsion Energy =             71.0815460194965283
    One-Electron Energy =                -371.3591682563568384
    Two-Electron Energy =                 131.2757074718683441
    Total Energy =                       -169.0019147649919944

  Dipole Moment: [D]
     X:    -1.6051      Y:     4.2009      Z:     0.0010     Total:     4.4971

    SAPT Results
  --------------------------------------------------------------------------------------------------------
    Electrostatics                -41.84003943 [mEh]     -26.25502113 [kcal/mol]    -109.85100839 [kJ/mol]
      Elst10,r                    -41.84003943 [mEh]     -26.25502113 [kcal/mol]    -109.85100839 [kJ/mol]

    Exchange                       37.96169789 [mEh]      23.82132507 [kcal/mol]      99.66842408 [kJ/mol]
      Exch10                       37.96169789 [mEh]      23.82132507 [kcal/mol]      99.66842408 [kJ/mol]
      Exch10(S^2)                  37.48399046 [mEh]      23.52155913 [kcal/mol]      98.41420340 [kJ/mol]

    Induction                     -16.32530282 [mEh]     -10.24428218 [kcal/mol]     -42.86207665 [kJ/mol]
      Ind20,r                     -19.41901835 [mEh]     -12.18561798 [kcal/mol]     -50.98462565 [kJ/mol]
      Exch-Ind20,r                 10.02438590 [mEh]       6.29039712 [kcal/mol]      26.31902155 [kJ/mol]
      delta HF,r (2)               -6.93067037 [mEh]      -4.34906132 [kcal/mol]     -18.19647255 [kJ/mol]

    Dispersion                    -10.94323148 [mEh]      -6.86698143 [kcal/mol]     -28.73145029 [kJ/mol]
      Disp20                      -13.52899719 [mEh]      -8.48957390 [kcal/mol]     -35.52037722 [kJ/mol]
      Exch-Disp20                   2.58576571 [mEh]       1.62259248 [kcal/mol]       6.78892693 [kJ/mol]
      Disp20 (SS)                  -6.76449859 [mEh]      -4.24478695 [kcal/mol]     -17.76018861 [kJ/mol]
      Disp20 (OS)                  -6.76449859 [mEh]      -4.24478695 [kcal/mol]     -17.76018861 [kJ/mol]
      Exch-Disp20 (SS)              1.63586459 [mEh]       1.02652053 [kcal/mol]       4.29496189 [kJ/mol]
      Exch-Disp20 (OS)              0.94990112 [mEh]       0.59607195 [kcal/mol]       2.49396504 [kJ/mol]

  Total HF                        -20.20364436 [mEh]     -12.67797824 [kcal/mol]     -53.04466097 [kJ/mol]
  Total SAPT0                     -31.14687584 [mEh]     -19.54495967 [kcal/mol]     -81.77611125 [kJ/mol]

  Special recipe for scaled SAPT0 (see Manual):
    Electrostatics sSAPT0         -41.84003943 [mEh]     -26.25502113 [kcal/mol]    -109.85100839 [kJ/mol]
    Exchange sSAPT0                37.96169789 [mEh]      23.82132507 [kcal/mol]      99.66842408 [kJ/mol]
    Induction sSAPT0              -15.93713616 [mEh]     -10.00070392 [kcal/mol]     -41.84294522 [kJ/mol]
    Dispersion sSAPT0             -10.84310484 [mEh]      -6.80415101 [kcal/mol]     -28.46856784 [kJ/mol]
  Total sSAPT0                    -30.65858254 [mEh]     -19.23855100 [kcal/mol]     -80.49409737 [kJ/mol]
  --------------------------------------------------------------------------------------------------------

*** Psi4 exiting successfully. Buy a developer a beer!
