                               Psi4 1.3.2 release

  ==> Input File <==

--------------------------------------------------------------------------
# Any line starting with the # character is a comment line
#! Sample  computation

memory 22 gb

molecule Dimer {
0 1
 C  3.022104   -0.088705    0.000350
 C  1.514442   -0.070405   -0.000215
 O  0.874253   -1.128615   -0.000277
 N  0.922262    1.137857   -0.000038
 H  3.462836    0.905365   -0.000355
 H  3.359265   -0.633723    0.879458
 H  3.359850   -0.635308   -0.877527
 H -0.097317    1.208891    0.000026
 H  1.477825    1.972682    0.000287

 --
0 1
 C  -2.568123    0.098971   -0.000048
 O  -1.971327    1.176189   -0.000315
 N  -1.981871   -1.106435    0.000262
 H  -2.553550   -1.931376    0.000501
 H  -0.960080   -1.186123    0.000238
 H  -3.665515    0.059883    0.000017

units angstrom

no_reorient
symmetry c1
}

set globals{
  basis jun-cc-pvtz
}

energy('sapt0')

--------------------------------------------------------------------------

  //              Dimer HF             //
    Molecular point group: c1
  Charge       = 0
  Multiplicity = 1
  Basis Set: JUN-CC-PVTZ
    Blend: JUN-CC-PVTZ
  Basis Set: (JUN-CC-PVTZ AUX)
    Blend: JUN-CC-PVTZ-JKFIT
  @DF-RHF Final Energy:  -377.08234484624705
    Total Energy =                       -377.0823448462470537
  //            Monomer A HF           //
    Molecular point group: c1
  Multiplicity = 1
  Basis Set: JUN-CC-PVTZ
    Blend: JUN-CC-PVTZ
  Basis Set: (JUN-CC-PVTZ AUX)
    Blend: JUN-CC-PVTZ-JKFIT
  @DF-RHF Final Energy:  -208.06035526358988
    Total Energy =                       -208.0603552635898836
  //            Monomer B HF           //
    Molecular point group: c1

    Geometry (in Angstrom), charge = 0, multiplicity = 1:

       Center              X                  Y                   Z               Mass
    ------------   -----------------  -----------------  -----------------  -----------------
      Gh(C)           3.063875651458    -0.090989231964     0.000375203147    12.000000000000
      Gh(C)           1.556213651458    -0.072689231964    -0.000189796853    12.000000000000
      Gh(O)           0.916024651458    -1.130899231964    -0.000251796853    15.994914619570
      Gh(N)           0.964033651458     1.135572768036    -0.000012796853    14.003074004430
      Gh(H)           3.504607651458     0.903080768036    -0.000329796853     1.007825032230
      Gh(H)           3.401036651458    -0.636007231964     0.879483203147     1.007825032230
      Gh(H)           3.401621651458    -0.637592231964    -0.877501796853     1.007825032230
      Gh(H)          -0.055545348542     1.206606768036     0.000051203147     1.007825032230
      Gh(H)           1.519596651458     1.970397768036     0.000312203147     1.007825032230
         C           -2.526351348542     0.096686768036    -0.000022796853    12.000000000000
         O           -1.929555348542     1.173904768036    -0.000289796853    15.994914619570
         N           -1.940099348542    -1.108719231964     0.000287203147    14.003074004430
         H           -2.511778348542    -1.933660231964     0.000526203147     1.007825032230
         H           -0.918308348542    -1.188407231964     0.000263203147     1.007825032230
         H           -3.623743348542     0.057598768036     0.000042203147     1.007825032230

  Charge       = 0
  Multiplicity = 1
  Basis Set: JUN-CC-PVTZ
    Blend: JUN-CC-PVTZ
  Basis Set: (JUN-CC-PVTZ AUX)
    Blend: JUN-CC-PVTZ-JKFIT

    Orbital Energies [Eh]
    ---------------------

    Doubly Occupied:

       1A    -20.526391     2A    -15.603166     3A    -11.356926
       4A     -1.374536     5A     -1.226812     6A     -0.854587
       7A     -0.756089     8A     -0.676994     9A     -0.601516
      10A     -0.571179    11A     -0.434873    12A     -0.421319

  @DF-RHF Final Energy:  -169.00196891459569

   => Energetics <=

    Nuclear Repulsion Energy =             71.0839375073839932
    One-Electron Energy =                -371.3630325774070116
    Two-Electron Energy =                 131.2771261554273110
    Total Energy =                       -169.0019689145956931

  Dipole Moment: [D]
     X:    -1.0627      Y:    -4.3691      Z:     0.0011     Total:     4.4965

    SAPT Results
  --------------------------------------------------------------------------------------------------------
    Electrostatics                -41.23878902 [mEh]     -25.87773079 [kcal/mol]    -108.27242564 [kJ/mol]
      Elst10,r                    -41.23878902 [mEh]     -25.87773079 [kcal/mol]    -108.27242564 [kJ/mol]

    Exchange                       37.17878417 [mEh]      23.33003929 [kcal/mol]      97.61288440 [kJ/mol]
      Exch10                       37.17878417 [mEh]      23.33003929 [kcal/mol]      97.61288440 [kJ/mol]
      Exch10(S^2)                  36.72096770 [mEh]      23.04275512 [kcal/mol]      96.41088741 [kJ/mol]

    Induction                     -15.96066322 [mEh]     -10.01546738 [kcal/mol]     -41.90471551 [kJ/mol]
      Ind20,r                     -18.98146676 [mEh]     -11.91105022 [kcal/mol]     -49.83583410 [kJ/mol]
      Exch-Ind20,r                  9.78099004 [mEh]       6.13766391 [kcal/mol]      25.67998582 [kJ/mol]
      delta HF,r (2)               -6.76018651 [mEh]      -4.24208108 [kcal/mol]     -17.74886722 [kJ/mol]

    Dispersion                    -10.74584945 [mEh]      -6.74312233 [kcal/mol]     -28.21322384 [kJ/mol]
      Disp20                      -13.27081298 [mEh]      -8.32756087 [kcal/mol]     -34.84251469 [kJ/mol]
      Exch-Disp20                   2.52496354 [mEh]       1.58443854 [kcal/mol]       6.62929085 [kJ/mol]
      Disp20 (SS)                  -6.63540649 [mEh]      -4.16378044 [kcal/mol]     -17.42125734 [kJ/mol]
      Disp20 (OS)                  -6.63540649 [mEh]      -4.16378044 [kcal/mol]     -17.42125734 [kJ/mol]
      Exch-Disp20 (SS)              1.59754571 [mEh]       1.00247507 [kcal/mol]       4.19435569 [kJ/mol]
      Exch-Disp20 (OS)              0.92741782 [mEh]       0.58196347 [kcal/mol]       2.43493516 [kJ/mol]

  Total HF                        -20.02066806 [mEh]     -12.56315888 [kcal/mol]     -52.56425675 [kJ/mol]
  Total SAPT0                     -30.76651751 [mEh]     -19.30628121 [kcal/mol]     -80.77748059 [kJ/mol]

  Special recipe for scaled SAPT0 (see Manual):
    Electrostatics sSAPT0         -41.23878902 [mEh]     -25.87773079 [kcal/mol]    -108.27242564 [kJ/mol]
    Exchange sSAPT0                37.17878417 [mEh]      23.33003929 [kcal/mol]      97.61288440 [kJ/mol]
    Induction sSAPT0              -15.59025155 [mEh]      -9.78303055 [kcal/mol]     -40.93219981 [kJ/mol]
    Dispersion sSAPT0             -10.65022764 [mEh]      -6.68311874 [kcal/mol]     -27.96216882 [kJ/mol]
  Total sSAPT0                    -30.30048403 [mEh]     -19.01384079 [kcal/mol]     -79.55390987 [kJ/mol]
  --------------------------------------------------------------------------------------------------------

*** Psi4 exiting successfully. Buy a developer a beer!
