                               Psi4 1.3.2 release

  ==> Input File <==

--------------------------------------------------------------------------
# Any line starting with the # character is a comment line
#! Sample  computation

memory 22 gb

molecule Dimer {

0 1
 C    3.50547300    0.64706500    0.00057200
 C    2.01244700    0.38807000   -0.00008300
 O    1.22568200    1.34439300   -0.00052200
 N    1.59761400   -0.88990900   -0.00011900
 H    0.59429300   -1.09901900   -0.00029700
 H    2.26265000   -1.64040300    0.00038900
 C    4.42145300   -0.56848300    0.00023900
 H    5.46387000   -0.25456400    0.00056300
 H    4.26829700   -1.18632700    0.88538700
 H    4.26858500   -1.18558400   -0.88547500
 H    3.69825600    1.27621600   -0.86934900
 H    3.69765800    1.27525800    0.87132700

 --
0 1
 C    -3.50546200   -0.64707200    0.00013600
 C    -2.01243500   -0.38805700   -0.00029700
 O    -1.22566500   -1.34437600   -0.00037900
 N    -1.59763200    0.88993000   -0.00063100
 H    -0.59432400    1.09907600   -0.00075400
 H    -2.26270000    1.64039700   -0.00046000
 C    -4.42146500    0.56844800    0.00080000
 H    -4.26888900    1.18610000   -0.88458600
 H    -5.46387600    0.25450800    0.00121100
 H    -4.26805300    1.18575600    0.88627600
 H    -3.69822600   -1.27549600   -0.87032500
 H    -3.69761500   -1.27602300    0.87034400

units angstrom

no_reorient
symmetry c1
}

set globals{
  basis jun-cc-pVTZ
  scf_type DF
  freeze_core True
}

energy('sapt0')

--------------------------------------------------------------------------

  //              Dimer HF             //
    Molecular point group: c1
  Charge       = 0
  Multiplicity = 1
  Basis Set: JUN-CC-PVTZ
    Blend: JUN-CC-PVTZ
  Basis Set: (JUN-CC-PVTZ AUX)
    Blend: JUN-CC-PVTZ-JKFIT
  @DF-RHF Final Energy:  -494.23187439997940
    Total Energy =                       -494.2318743999794606
  //            Monomer A HF           //
    Molecular point group: c1
  Multiplicity = 1
  Basis Set: JUN-CC-PVTZ
    Blend: JUN-CC-PVTZ
  Basis Set: (JUN-CC-PVTZ AUX)
    Blend: JUN-CC-PVTZ-JKFIT
  @DF-RHF Final Energy:  -247.10577573382687
    Total Energy =                       -247.1057757338268743
  //            Monomer B HF           //
    Molecular point group: c1

    Geometry (in Angstrom), charge = 0, multiplicity = 1:

       Center              X                  Y                   Z               Mass
    ------------   -----------------  -----------------  -----------------  -----------------
      Gh(C)           3.505472471073     0.647064232360     0.000600920599    12.000000000000
      Gh(C)           2.012446471073     0.388069232360    -0.000054079401    12.000000000000
      Gh(O)           1.225681471073     1.344392232360    -0.000493079401    15.994914619570
      Gh(N)           1.597613471073    -0.889909767640    -0.000090079401    14.003074004430
      Gh(H)           0.594292471073    -1.099019767640    -0.000268079401     1.007825032230
      Gh(H)           2.262649471073    -1.640403767640     0.000417920599     1.007825032230
      Gh(C)           4.421452471073    -0.568483767640     0.000267920599    12.000000000000
      Gh(H)           5.463869471073    -0.254564767640     0.000591920599     1.007825032230
      Gh(H)           4.268296471073    -1.186327767640     0.885415920599     1.007825032230
      Gh(H)           4.268584471073    -1.185584767640    -0.885446079401     1.007825032230
      Gh(H)           3.698255471073     1.276215232360    -0.869320079401     1.007825032230
      Gh(H)           3.697657471073     1.275257232360     0.871355920599     1.007825032230
         C           -3.505462528927    -0.647072767640     0.000164920599    12.000000000000
         C           -2.012435528927    -0.388057767640    -0.000268079401    12.000000000000
         O           -1.225665528927    -1.344376767640    -0.000350079401    15.994914619570
         N           -1.597632528927     0.889929232360    -0.000602079401    14.003074004430
         H           -0.594324528927     1.099075232360    -0.000725079401     1.007825032230
         H           -2.262700528927     1.640396232360    -0.000431079401     1.007825032230
         C           -4.421465528927     0.568447232360     0.000828920599    12.000000000000
         H           -4.268889528927     1.186099232360    -0.884557079401     1.007825032230
         H           -5.463876528927     0.254507232360     0.001239920599     1.007825032230
         H           -4.268053528927     1.185755232360     0.886304920599     1.007825032230
         H           -3.698226528927    -1.275496767640    -0.870296079401     1.007825032230
         H           -3.697615528927    -1.276023767640     0.870372920599     1.007825032230

  Charge       = 0
  Multiplicity = 1
  Basis Set: JUN-CC-PVTZ
    Blend: JUN-CC-PVTZ
  Basis Set: (JUN-CC-PVTZ AUX)
    Blend: JUN-CC-PVTZ-JKFIT

    Orbital Energies [Eh]
    ---------------------

    Doubly Occupied:

       1A    -20.506579     2A    -15.591292     3A    -11.348492
       4A    -11.241413     5A    -11.236621     6A     -1.363093
       7A     -1.216345     8A     -1.058967     9A     -0.903625
      10A     -0.795252    11A     -0.735570    12A     -0.645190
      13A     -0.644512    14A     -0.594686    15A     -0.558589
      16A     -0.552507    17A     -0.524573    18A     -0.502650
      19A     -0.413975    20A     -0.409006

  @DF-RHF Final Energy:  -247.10577569518654

   => Energetics <=

    Nuclear Repulsion Energy =            179.1432070885344388
    One-Electron Energy =                -690.8120977070560684
    Two-Electron Energy =                 264.5631149233350925
    Total Energy =                       -247.1057756951865372

  Dipole Moment: [D]
     X:    -2.5015      Y:     3.8211      Z:     0.0006     Total:     4.5671

    SAPT Results
  --------------------------------------------------------------------------------------------------------
    Electrostatics                -43.11495929 [mEh]     -27.05504542 [kcal/mol]    -113.19831003 [kJ/mol]
      Elst10,r                    -43.11495929 [mEh]     -27.05504542 [kcal/mol]    -113.19831003 [kJ/mol]

    Exchange                       39.82038197 [mEh]      24.98766694 [kcal/mol]     104.54839846 [kJ/mol]
      Exch10                       39.82038197 [mEh]      24.98766694 [kcal/mol]     104.54839846 [kJ/mol]
      Exch10(S^2)                  39.30270946 [mEh]      24.66282253 [kcal/mol]     103.18924946 [kJ/mol]

    Induction                     -17.02839364 [mEh]     -10.68547833 [kcal/mol]     -44.70804135 [kJ/mol]
      Ind20,r                     -20.28957591 [mEh]     -12.73190110 [kcal/mol]     -53.27027420 [kJ/mol]
      Exch-Ind20,r                 10.51550123 [mEh]       6.59857664 [kcal/mol]      27.60844468 [kJ/mol]
      delta HF,r (2)               -7.25431897 [mEh]      -4.55215388 [kcal/mol]     -19.04621182 [kJ/mol]

    Dispersion                    -11.46286709 [mEh]      -7.19305769 [kcal/mol]     -30.09575339 [kJ/mol]
      Disp20                      -14.20643983 [mEh]      -8.91467558 [kcal/mol]     -37.29900263 [kJ/mol]
      Exch-Disp20                   2.74357274 [mEh]       1.72161789 [kcal/mol]       7.20324924 [kJ/mol]
      Disp20 (SS)                  -7.10321991 [mEh]      -4.45733779 [kcal/mol]     -18.64950132 [kJ/mol]
      Disp20 (OS)                  -7.10321991 [mEh]      -4.45733779 [kcal/mol]     -18.64950132 [kJ/mol]
      Exch-Disp20 (SS)              1.73410318 [mEh]       1.08816618 [kcal/mol]       4.55288728 [kJ/mol]
      Exch-Disp20 (OS)              1.00946956 [mEh]       0.63345171 [kcal/mol]       2.65036196 [kJ/mol]

  Total HF                        -20.32297097 [mEh]     -12.75285682 [kcal/mol]     -53.35795292 [kJ/mol]
  Total SAPT0                     -31.78583805 [mEh]     -19.94591451 [kcal/mol]     -83.45370631 [kJ/mol]

  Special recipe for scaled SAPT0 (see Manual):
    Electrostatics sSAPT0         -43.11495929 [mEh]     -27.05504542 [kcal/mol]    -113.19831003 [kJ/mol]
    Exchange sSAPT0                39.82038197 [mEh]      24.98766694 [kcal/mol]     104.54839846 [kJ/mol]
    Induction sSAPT0              -16.60738446 [mEh]     -10.42129108 [kcal/mol]     -43.60268190 [kJ/mol]
    Dispersion sSAPT0             -11.35302265 [mEh]      -7.12412927 [kcal/mol]     -29.80735686 [kJ/mol]
  Total sSAPT0                    -31.25498444 [mEh]     -19.61279884 [kcal/mol]     -82.05995033 [kJ/mol]
  --------------------------------------------------------------------------------------------------------

*** Psi4 exiting successfully. Buy a developer a beer!
