                               Psi4 1.3.2 release

  ==> Input File <==

--------------------------------------------------------------------------
# Any line starting with the # character is a comment line
#! Sample  computation

memory 22 gb

molecule Dimer {

0 1
 C                  1.48085291   -0.68442780    0.40187779
 C                  1.48090191    0.68442620   -0.26825721
 H                  0.60185391   -0.81633880    1.03192279
 H                  2.36148791   -0.81468180    1.02974979
 H                  1.47949391   -1.48518180   -0.33687621
 H                  1.47932391    1.48518020    0.47049679
 H                  0.60204991    0.81629120   -0.89851521
 H                  2.36168491    0.81472320   -0.89591321
--
0 1
 C                 -1.48085791   -0.68442620   -0.40187879
 C                 -1.48089691    0.68442780    0.26825721
 H                 -1.47951591   -1.48518020    0.33687621
 H                 -0.60185591   -0.81634720   -1.03191479
 H                 -2.36148891   -0.81466920   -1.02975779
 H                 -0.60204791    0.81628380    0.89852121
 H                 -2.36168191    0.81473480    0.89590721
 H                 -1.47930391    1.48518180   -0.47049679

units angstrom
no_reorient
symmetry c1
}

set globals{
  basis jun-cc-pvtz
}

energy('sapt0')
--------------------------------------------------------------------------

  //              Dimer HF             //
    Molecular point group: c1
  Charge       = 0
  Multiplicity = 1
  Basis Set: JUN-CC-PVTZ
    Blend: JUN-CC-PVTZ
  Basis Set: (JUN-CC-PVTZ AUX)
    Blend: JUN-CC-PVTZ-JKFIT
  @DF-RHF Final Energy:  -158.50162688695542
    Total Energy =                       -158.5016268869554210
  //            Monomer A HF           //
    Molecular point group: c1
  Multiplicity = 1
  Basis Set: JUN-CC-PVTZ
    Blend: JUN-CC-PVTZ
  Basis Set: (JUN-CC-PVTZ AUX)
    Blend: JUN-CC-PVTZ-JKFIT
  @DF-RHF Final Energy:   -79.26016615422560
    Total Energy =                        -79.2601661542256011
  //            Monomer B HF           //
    Molecular point group: c1

    Geometry (in Angstrom), charge = 0, multiplicity = 1:

       Center              X                  Y                   Z               Mass
    ------------   -----------------  -----------------  -----------------  -----------------
      Gh(C)           1.480852910000    -0.684427732917     0.401877989687    12.000000000000
      Gh(C)           1.480901910000     0.684426267083    -0.268257010313    12.000000000000
      Gh(H)           0.601853910000    -0.816338732917     1.031922989687     1.007825032230
      Gh(H)           2.361487910000    -0.814681732917     1.029749989687     1.007825032230
      Gh(H)           1.479493910000    -1.485181732917    -0.336876010313     1.007825032230
      Gh(H)           1.479323910000     1.485180267083     0.470496989687     1.007825032230
      Gh(H)           0.602049910000     0.816291267083    -0.898515010313     1.007825032230
      Gh(H)           2.361684910000     0.814723267083    -0.895913010313     1.007825032230
         C           -1.480857910000    -0.684426132917    -0.401878590313    12.000000000000
         C           -1.480896910000     0.684427867083     0.268257409687    12.000000000000
         H           -1.479515910000    -1.485180132917     0.336876409687     1.007825032230
         H           -0.601855910000    -0.816347132917    -1.031914590313     1.007825032230
         H           -2.361488910000    -0.814669132917    -1.029757590313     1.007825032230
         H           -0.602047910000     0.816283867083     0.898521409687     1.007825032230
         H           -2.361681910000     0.814734867083     0.895907409687     1.007825032230
         H           -1.479303910000     1.485181867083    -0.470496590313     1.007825032230

  Charge       = 0
  Multiplicity = 1
  Basis Set: JUN-CC-PVTZ
    Blend: JUN-CC-PVTZ
  Basis Set: (JUN-CC-PVTZ AUX)
    Blend: JUN-CC-PVTZ-JKFIT

    Orbital Energies [Eh]
    ---------------------

    Doubly Occupied:

       1A    -11.210499     2A    -11.209887     3A     -1.018465
       4A     -0.841701     5A     -0.597132     6A     -0.596897
       7A     -0.509949     8A     -0.486684     9A     -0.486443

  @DF-RHF Final Energy:   -79.26016616859320

   => Energetics <=

    Nuclear Repulsion Energy =             42.3400412522638518
    One-Electron Energy =                -189.2851006977147961
    Two-Electron Energy =                  67.6848932768577356
    Total Energy =                        -79.2601661685932015

  Dipole Moment: [D]
     X:    -0.0003      Y:    -0.0001      Z:     0.0000     Total:     0.0003

    SAPT Results
  --------------------------------------------------------------------------------------------------------
    Electrostatics                 -9.68416890 [mEh]      -6.07690773 [kcal/mol]     -25.42578193 [kJ/mol]
      Elst10,r                     -9.68416890 [mEh]      -6.07690773 [kcal/mol]     -25.42578193 [kJ/mol]

    Exchange                       30.70009375 [mEh]      19.26459967 [kcal/mol]      80.60308503 [kJ/mol]
      Exch10                       30.70009375 [mEh]      19.26459967 [kcal/mol]      80.60308503 [kJ/mol]
      Exch10(S^2)                  30.35101788 [mEh]      19.04555126 [kcal/mol]      79.68658647 [kJ/mol]

    Induction                      -2.31048899 [mEh]      -1.44985373 [kcal/mol]      -6.06618800 [kJ/mol]
      Ind20,r                      -6.44449055 [mEh]      -4.04397887 [kcal/mol]     -16.92000760 [kJ/mol]
      Exch-Ind20,r                  5.79218996 [mEh]       3.63465408 [kcal/mol]      15.20739266 [kJ/mol]
      delta HF,r (2)               -1.65818841 [mEh]      -1.04052893 [kcal/mol]      -4.35357306 [kJ/mol]

    Dispersion                    -13.71275222 [mEh]      -8.60488193 [kcal/mol]     -36.00282599 [kJ/mol]
      Disp20                      -16.25921202 [mEh]     -10.20280958 [kcal/mol]     -42.68855528 [kJ/mol]
      Exch-Disp20                   2.54645980 [mEh]       1.59792765 [kcal/mol]       6.68572929 [kJ/mol]
      Disp20 (SS)                  -8.12960601 [mEh]      -5.10140479 [kcal/mol]     -21.34427764 [kJ/mol]
      Disp20 (OS)                  -8.12960601 [mEh]      -5.10140479 [kcal/mol]     -21.34427764 [kJ/mol]
      Exch-Disp20 (SS)              1.64994928 [mEh]       1.03535880 [kcal/mol]       4.33194124 [kJ/mol]
      Exch-Disp20 (OS)              0.89651052 [mEh]       0.56256885 [kcal/mol]       2.35378805 [kJ/mol]

  Total HF                         18.70543586 [mEh]      11.73783822 [kcal/mol]      49.11111509 [kJ/mol]
  Total SAPT0                       4.99268365 [mEh]       3.13295629 [kcal/mol]      13.10828911 [kJ/mol]

  Special recipe for scaled SAPT0 (see Manual):
    Electrostatics sSAPT0          -9.68416890 [mEh]      -6.07690773 [kcal/mol]     -25.42578193 [kJ/mol]
    Exchange sSAPT0                30.70009375 [mEh]      19.26459967 [kcal/mol]      80.60308503 [kJ/mol]
    Induction sSAPT0               -2.10832864 [mEh]      -1.32299619 [kcal/mol]      -5.53541607 [kJ/mol]
    Dispersion sSAPT0             -13.62387509 [mEh]      -8.54911069 [kcal/mol]     -35.76947912 [kJ/mol]
  Total sSAPT0                      5.28372113 [mEh]       3.31558506 [kcal/mol]      13.87240790 [kJ/mol]
  --------------------------------------------------------------------------------------------------------

*** Psi4 exiting successfully. Buy a developer a beer!
