                               Psi4 1.3.2 release

  ==> Input File <==

--------------------------------------------------------------------------
# Any line starting with the # character is a comment line
#! Sample  computation

memory 22 gb

molecule Dimer {

0 1
 C                  2.69607602   -0.68442846    0.18174646
 C                  2.69612502    0.68442554   -0.48838854
 H                  1.81707702   -0.81633946    0.81179146
 H                  3.57671102   -0.81468246    0.80961846
 H                  2.69471702   -1.48518246   -0.55700754
 H                  2.69454702    1.48517954    0.25036546
 H                  1.81727302    0.81629054   -1.11864654
 H                  3.57690802    0.81472254   -1.11604454
--
0 1
 C                 -2.69608102   -0.68442554   -0.18174746
 C                 -2.69612002    0.68442846    0.48838854
 H                 -2.69473902   -1.48517954    0.55700754
 H                 -1.81707902   -0.81634654   -0.81178346
 H                 -3.57671202   -0.81466854   -0.80962646
 H                 -1.81727102    0.81628446    1.11865254
 H                 -3.57690502    0.81473546    1.11603854
 H                 -2.69452702    1.48518246   -0.25036546

units angstrom
no_reorient
symmetry c1
}

set globals{
  basis jun-cc-pvtz
}

energy('sapt0')
--------------------------------------------------------------------------

  //              Dimer HF             //
    Molecular point group: c1
  Charge       = 0
  Multiplicity = 1
  Basis Set: JUN-CC-PVTZ
    Blend: JUN-CC-PVTZ
  Basis Set: (JUN-CC-PVTZ AUX)
    Blend: JUN-CC-PVTZ-JKFIT
  @DF-RHF Final Energy:  -158.52024759729392
    Total Energy =                       -158.5202475972939169
  //            Monomer A HF           //
    Molecular point group: c1
  Multiplicity = 1
  Basis Set: JUN-CC-PVTZ
    Blend: JUN-CC-PVTZ
  Basis Set: (JUN-CC-PVTZ AUX)
    Blend: JUN-CC-PVTZ-JKFIT
  @DF-RHF Final Energy:   -79.26012931103429
    Total Energy =                        -79.2601293110342908
  //            Monomer B HF           //
    Molecular point group: c1

    Geometry (in Angstrom), charge = 0, multiplicity = 1:

       Center              X                  Y                   Z               Mass
    ------------   -----------------  -----------------  -----------------  -----------------
      Gh(C)           2.696076020000    -0.684428392917     0.181746659687    12.000000000000
      Gh(C)           2.696125020000     0.684425607083    -0.488388340313    12.000000000000
      Gh(H)           1.817077020000    -0.816339392917     0.811791659687     1.007825032230
      Gh(H)           3.576711020000    -0.814682392917     0.809618659687     1.007825032230
      Gh(H)           2.694717020000    -1.485182392917    -0.557007340313     1.007825032230
      Gh(H)           2.694547020000     1.485179607083     0.250365659687     1.007825032230
      Gh(H)           1.817273020000     0.816290607083    -1.118646340313     1.007825032230
      Gh(H)           3.576908020000     0.814722607083    -1.116044340313     1.007825032230
         C           -2.696081020000    -0.684425472917    -0.181747260313    12.000000000000
         C           -2.696120020000     0.684428527083     0.488388739687    12.000000000000
         H           -2.694739020000    -1.485179472917     0.557007739687     1.007825032230
         H           -1.817079020000    -0.816346472917    -0.811783260313     1.007825032230
         H           -3.576712020000    -0.814668472917    -0.809626260313     1.007825032230
         H           -1.817271020000     0.816284527083     1.118652739687     1.007825032230
         H           -3.576905020000     0.814735527083     1.116038739687     1.007825032230
         H           -2.694527020000     1.485182527083    -0.250365260313     1.007825032230

  Charge       = 0
  Multiplicity = 1
  Basis Set: JUN-CC-PVTZ
    Blend: JUN-CC-PVTZ
  Basis Set: (JUN-CC-PVTZ AUX)
    Blend: JUN-CC-PVTZ-JKFIT

    Orbital Energies [Eh]
    ---------------------

    Doubly Occupied:

       1A    -11.210509     2A    -11.209898     3A     -1.018479
       4A     -0.841713     5A     -0.597140     6A     -0.596909
       7A     -0.509951     8A     -0.486693     9A     -0.486453

  @DF-RHF Final Energy:   -79.26012932537287

   => Energetics <=

    Nuclear Repulsion Energy =             42.3400412522638590
    One-Electron Energy =                -189.2848521407697433
    Two-Electron Energy =                  67.6846815631330117
    Total Energy =                        -79.2601293253728727

  Dipole Moment: [D]
     X:     0.0000      Y:     0.0000      Z:    -0.0000     Total:     0.0000

    SAPT Results
  --------------------------------------------------------------------------------------------------------
    Electrostatics                  0.00140040 [mEh]       0.00087877 [kcal/mol]       0.00367675 [kJ/mol]
      Elst10,r                      0.00140040 [mEh]       0.00087877 [kcal/mol]       0.00367675 [kJ/mol]

    Exchange                        0.01040518 [mEh]       0.00652935 [kcal/mol]       0.02731880 [kJ/mol]
      Exch10                        0.01040518 [mEh]       0.00652935 [kcal/mol]       0.02731880 [kJ/mol]
      Exch10(S^2)                   0.01040504 [mEh]       0.00652926 [kcal/mol]       0.02731843 [kJ/mol]

    Induction                      -0.00076647 [mEh]      -0.00048097 [kcal/mol]      -0.00201237 [kJ/mol]
      Ind20,r                      -0.00083995 [mEh]      -0.00052708 [kcal/mol]      -0.00220529 [kJ/mol]
      Exch-Ind20,r                  0.00061969 [mEh]       0.00038886 [kcal/mol]       0.00162699 [kJ/mol]
      delta HF,r (2)               -0.00054621 [mEh]      -0.00034275 [kcal/mol]      -0.00143407 [kJ/mol]

    Dispersion                     -0.37212950 [mEh]      -0.23351478 [kcal/mol]      -0.97702586 [kJ/mol]
      Disp20                       -0.37377343 [mEh]      -0.23454637 [kcal/mol]      -0.98134200 [kJ/mol]
      Exch-Disp20                   0.00164393 [mEh]       0.00103158 [kcal/mol]       0.00431615 [kJ/mol]
      Disp20 (SS)                  -0.18688671 [mEh]      -0.11727318 [kcal/mol]      -0.49067100 [kJ/mol]
      Disp20 (OS)                  -0.18688671 [mEh]      -0.11727318 [kcal/mol]      -0.49067100 [kJ/mol]
      Exch-Disp20 (SS)              0.00120918 [mEh]       0.00075877 [kcal/mol]       0.00317471 [kJ/mol]
      Exch-Disp20 (OS)              0.00043475 [mEh]       0.00027281 [kcal/mol]       0.00114144 [kJ/mol]

  Total HF                          0.01103911 [mEh]       0.00692715 [kcal/mol]       0.02898319 [kJ/mol]
  Total SAPT0                      -0.36109038 [mEh]      -0.22658764 [kcal/mol]      -0.94804267 [kJ/mol]

  Special recipe for scaled SAPT0 (see Manual):
    Electrostatics sSAPT0           0.00140040 [mEh]       0.00087877 [kcal/mol]       0.00367675 [kJ/mol]
    Exchange sSAPT0                 0.01040518 [mEh]       0.00652935 [kcal/mol]       0.02731880 [kJ/mol]
    Induction sSAPT0               -0.00076644 [mEh]      -0.00048095 [kcal/mol]      -0.00201230 [kJ/mol]
    Dispersion sSAPT0              -0.37212943 [mEh]      -0.23351474 [kcal/mol]      -0.97702568 [kJ/mol]
  Total sSAPT0                     -0.36109029 [mEh]      -0.22658758 [kcal/mol]      -0.94804243 [kJ/mol]
  --------------------------------------------------------------------------------------------------------

*** Psi4 exiting successfully. Buy a developer a beer!
