                               Psi4 1.3.2 release

  ==> Input File <==

--------------------------------------------------------------------------
# Any line starting with the # character is a comment line
#! Sample  computation

memory 22 gb

molecule Dimer {

0 1
 C                  1.72192956   -0.68442793    0.35820801
 C                  1.72197856    0.68442607   -0.31192699
 H                  0.84293056   -0.81633893    0.98825301
 H                  2.60256456   -0.81468193    0.98608001
 H                  1.72057056   -1.48518193   -0.38054599
 H                  1.72040056    1.48518007    0.42682701
 H                  0.84312656    0.81629107   -0.94218499
 H                  2.60276156    0.81472307   -0.93958299
--
0 1
 C                 -1.72193456   -0.68442607   -0.35820901
 C                 -1.72197356    0.68442793    0.31192699
 H                 -1.72059256   -1.48518007    0.38054599
 H                 -0.84293256   -0.81634707   -0.98824501
 H                 -2.60256556   -0.81466907   -0.98608801
 H                 -0.84312456    0.81628393    0.94219099
 H                 -2.60275856    0.81473493    0.93957699
 H                 -1.72038056    1.48518193   -0.42682701

units angstrom
no_reorient
symmetry c1
}

set globals{
  basis jun-cc-pvtz
}

energy('sapt0')
--------------------------------------------------------------------------

  //              Dimer HF             //
    Molecular point group: c1
  Charge       = 0
  Multiplicity = 1
  Basis Set: JUN-CC-PVTZ
    Blend: JUN-CC-PVTZ
  Basis Set: (JUN-CC-PVTZ AUX)
    Blend: JUN-CC-PVTZ-JKFIT
  @DF-RHF Final Energy:  -158.51600222912074
    Total Energy =                       -158.5160022291207440
  //            Monomer A HF           //
    Molecular point group: c1
  Multiplicity = 1
  Basis Set: JUN-CC-PVTZ
    Blend: JUN-CC-PVTZ
  Basis Set: (JUN-CC-PVTZ AUX)
    Blend: JUN-CC-PVTZ-JKFIT
  @DF-RHF Final Energy:   -79.26014994168357
    Total Energy =                        -79.2601499416835651
  //            Monomer B HF           //
    Molecular point group: c1

    Geometry (in Angstrom), charge = 0, multiplicity = 1:

       Center              X                  Y                   Z               Mass
    ------------   -----------------  -----------------  -----------------  -----------------
      Gh(C)           1.721929560000    -0.684427862917     0.358208209687    12.000000000000
      Gh(C)           1.721978560000     0.684426137083    -0.311926790313    12.000000000000
      Gh(H)           0.842930560000    -0.816338862917     0.988253209687     1.007825032230
      Gh(H)           2.602564560000    -0.814681862917     0.986080209687     1.007825032230
      Gh(H)           1.720570560000    -1.485181862917    -0.380545790313     1.007825032230
      Gh(H)           1.720400560000     1.485180137083     0.426827209687     1.007825032230
      Gh(H)           0.843126560000     0.816291137083    -0.942184790313     1.007825032230
      Gh(H)           2.602761560000     0.814723137083    -0.939582790313     1.007825032230
         C           -1.721934560000    -0.684426002917    -0.358208810313    12.000000000000
         C           -1.721973560000     0.684427997083     0.311927189687    12.000000000000
         H           -1.720592560000    -1.485180002917     0.380546189687     1.007825032230
         H           -0.842932560000    -0.816347002917    -0.988244810313     1.007825032230
         H           -2.602565560000    -0.814669002917    -0.986087810313     1.007825032230
         H           -0.843124560000     0.816283997083     0.942191189687     1.007825032230
         H           -2.602758560000     0.814734997083     0.939577189687     1.007825032230
         H           -1.720380560000     1.485181997083    -0.426826810313     1.007825032230

  Charge       = 0
  Multiplicity = 1
  Basis Set: JUN-CC-PVTZ
    Blend: JUN-CC-PVTZ
  Basis Set: (JUN-CC-PVTZ AUX)
    Blend: JUN-CC-PVTZ-JKFIT

    Orbital Energies [Eh]
    ---------------------

    Doubly Occupied:

       1A    -11.210501     2A    -11.209889     3A     -1.018472
       4A     -0.841706     5A     -0.597136     6A     -0.596901
       7A     -0.509952     8A     -0.486689     9A     -0.486446

  @DF-RHF Final Energy:   -79.26014995597193

   => Energetics <=

    Nuclear Repulsion Energy =             42.3400412522638661
    One-Electron Energy =                -189.2849990877300286
    Two-Electron Energy =                  67.6848078794942438
    Total Energy =                        -79.2601499559719258

  Dipole Moment: [D]
     X:    -0.0006      Y:    -0.0000      Z:    -0.0000     Total:     0.0006

    SAPT Results
  --------------------------------------------------------------------------------------------------------
    Electrostatics                 -2.09380384 [mEh]      -1.31388175 [kcal/mol]      -5.49728123 [kJ/mol]
      Elst10,r                     -2.09380384 [mEh]      -1.31388175 [kcal/mol]      -5.49728123 [kJ/mol]

    Exchange                        6.92524023 [mEh]       4.34565385 [kcal/mol]      18.18221573 [kJ/mol]
      Exch10                        6.92524023 [mEh]       4.34565385 [kcal/mol]      18.18221573 [kJ/mol]
      Exch10(S^2)                   6.90156515 [mEh]       4.33079751 [kcal/mol]      18.12005680 [kJ/mol]

    Induction                      -0.53376786 [mEh]      -0.33494439 [kcal/mol]      -1.40140731 [kJ/mol]
      Ind20,r                      -1.11678587 [mEh]      -0.70079371 [kcal/mol]      -2.93212090 [kJ/mol]
      Exch-Ind20,r                  1.00668445 [mEh]       0.63170403 [kcal/mol]       2.64304967 [kJ/mol]
      delta HF,r (2)               -0.42366644 [mEh]      -0.26585470 [kcal/mol]      -1.11233608 [kJ/mol]

    Dispersion                     -6.04064228 [mEh]      -3.79056026 [kcal/mol]     -15.85970412 [kJ/mol]
      Disp20                       -6.72299891 [mEh]      -4.21874551 [kcal/mol]     -17.65123121 [kJ/mol]
      Exch-Disp20                   0.68235663 [mEh]       0.42818525 [kcal/mol]       1.79152709 [kJ/mol]
      Disp20 (SS)                  -3.36149946 [mEh]      -2.10937275 [kcal/mol]      -8.82561560 [kJ/mol]
      Disp20 (OS)                  -3.36149946 [mEh]      -2.10937275 [kcal/mol]      -8.82561560 [kJ/mol]
      Exch-Disp20 (SS)              0.44540338 [mEh]       0.27949484 [kcal/mol]       1.16940642 [kJ/mol]
      Exch-Disp20 (OS)              0.23695325 [mEh]       0.14869041 [kcal/mol]       0.62212067 [kJ/mol]

  Total HF                          4.29766853 [mEh]       2.69682772 [kcal/mol]      11.28352718 [kJ/mol]
  Total SAPT0                      -1.74297375 [mEh]      -1.09373254 [kcal/mol]      -4.57617694 [kJ/mol]

  Special recipe for scaled SAPT0 (see Manual):
    Electrostatics sSAPT0          -2.09380384 [mEh]      -1.31388175 [kcal/mol]      -5.49728123 [kJ/mol]
    Exchange sSAPT0                 6.92524023 [mEh]       4.34565385 [kcal/mol]      18.18221573 [kJ/mol]
    Induction sSAPT0               -0.52337230 [mEh]      -0.32842108 [kcal/mol]      -1.37411379 [kJ/mol]
    Dispersion sSAPT0              -6.03359591 [mEh]      -3.78613859 [kcal/mol]     -15.84120387 [kJ/mol]
  Total sSAPT0                     -1.72553182 [mEh]      -1.08278757 [kcal/mol]      -4.53038317 [kJ/mol]
  --------------------------------------------------------------------------------------------------------

*** Psi4 exiting successfully. Buy a developer a beer!
