                               Psi4 1.3.2 release

  ==> Input File <==

--------------------------------------------------------------------------
# Any line starting with the # character is a comment line
#! Sample  computation

memory 22 gb

molecule Dimer {

0 1
 C                  2.20408286   -0.68442820    0.27086846
 C                  2.20413186    0.68442580   -0.39926654
 H                  1.32508386   -0.81633920    0.90091346
 H                  3.08471786   -0.81468220    0.89874046
 H                  2.20272386   -1.48518220   -0.46788554
 H                  2.20255386    1.48517980    0.33948746
 H                  1.32527986    0.81629080   -1.02952454
 H                  3.08491486    0.81472280   -1.02692254
--
0 1
 C                 -2.20408786   -0.68442580   -0.27086946
 C                 -2.20412686    0.68442820    0.39926654
 H                 -2.20274586   -1.48517980    0.46788554
 H                 -1.32508586   -0.81634680   -0.90090546
 H                 -3.08471886   -0.81466880   -0.89874846
 H                 -1.32527786    0.81628420    1.02953054
 H                 -3.08491186    0.81473520    1.02691654
 H                 -2.20253386    1.48518220   -0.33948746

units angstrom
no_reorient
symmetry c1
}

set globals{
  basis jun-cc-pvtz
}

energy('sapt0')
--------------------------------------------------------------------------

  //              Dimer HF             //
    Molecular point group: c1
  Charge       = 0
  Multiplicity = 1
  Basis Set: JUN-CC-PVTZ
    Blend: JUN-CC-PVTZ
  Basis Set: (JUN-CC-PVTZ AUX)
    Blend: JUN-CC-PVTZ-JKFIT
  @DF-RHF Final Energy:  -158.52006761421634
    Total Energy =                       -158.5200676142163445
  //            Monomer A HF           //
    Molecular point group: c1
  Multiplicity = 1
  Basis Set: JUN-CC-PVTZ
    Blend: JUN-CC-PVTZ
  Basis Set: (JUN-CC-PVTZ AUX)
    Blend: JUN-CC-PVTZ-JKFIT
  @DF-RHF Final Energy:   -79.26013399367048
    Total Energy =                        -79.2601339936704790
  //            Monomer B HF           //
    Molecular point group: c1

    Geometry (in Angstrom), charge = 0, multiplicity = 1:

       Center              X                  Y                   Z               Mass
    ------------   -----------------  -----------------  -----------------  -----------------
      Gh(C)           2.204082860000    -0.684428132917     0.270868659687    12.000000000000
      Gh(C)           2.204131860000     0.684425867083    -0.399266340313    12.000000000000
      Gh(H)           1.325083860000    -0.816339132917     0.900913659687     1.007825032230
      Gh(H)           3.084717860000    -0.814682132917     0.898740659687     1.007825032230
      Gh(H)           2.202723860000    -1.485182132917    -0.467885340313     1.007825032230
      Gh(H)           2.202553860000     1.485179867083     0.339487659687     1.007825032230
      Gh(H)           1.325279860000     0.816290867083    -1.029524340313     1.007825032230
      Gh(H)           3.084914860000     0.814722867083    -1.026922340313     1.007825032230
         C           -2.204087860000    -0.684425732917    -0.270869260313    12.000000000000
         C           -2.204126860000     0.684428267083     0.399266739687    12.000000000000
         H           -2.202745860000    -1.485179732917     0.467885739687     1.007825032230
         H           -1.325085860000    -0.816346732917    -0.900905260313     1.007825032230
         H           -3.084718860000    -0.814668732917    -0.898748260313     1.007825032230
         H           -1.325277860000     0.816284267083     1.029530739687     1.007825032230
         H           -3.084911860000     0.814735267083     1.026916739687     1.007825032230
         H           -2.202533860000     1.485182267083    -0.339487260313     1.007825032230

  Charge       = 0
  Multiplicity = 1
  Basis Set: JUN-CC-PVTZ
    Blend: JUN-CC-PVTZ
  Basis Set: (JUN-CC-PVTZ AUX)
    Blend: JUN-CC-PVTZ-JKFIT

    Orbital Energies [Eh]
    ---------------------

    Doubly Occupied:

       1A    -11.210508     2A    -11.209897     3A     -1.018478
       4A     -0.841712     5A     -0.597140     6A     -0.596908
       7A     -0.509952     8A     -0.486693     9A     -0.486453

  @DF-RHF Final Energy:   -79.26013400798182

   => Energetics <=

    Nuclear Repulsion Energy =             42.3400412522638590
    One-Electron Energy =                -189.2848664248687953
    Two-Electron Energy =                  67.6846911646231177
    Total Energy =                        -79.2601340079818186

  Dipole Moment: [D]
     X:    -0.0002      Y:     0.0000      Z:    -0.0000     Total:     0.0002

    SAPT Results
  --------------------------------------------------------------------------------------------------------
    Electrostatics                 -0.07775688 [mEh]      -0.04879318 [kcal/mol]      -0.20415066 [kJ/mol]
      Elst10,r                     -0.07775688 [mEh]      -0.04879318 [kcal/mol]      -0.20415066 [kJ/mol]

    Exchange                        0.29976511 [mEh]       0.18810545 [kcal/mol]       0.78703320 [kJ/mol]
      Exch10                        0.29976511 [mEh]       0.18810545 [kcal/mol]       0.78703320 [kJ/mol]
      Exch10(S^2)                   0.29968857 [mEh]       0.18805741 [kcal/mol]       0.78683222 [kJ/mol]

    Induction                      -0.02162080 [mEh]      -0.01356725 [kcal/mol]      -0.05676539 [kJ/mol]
      Ind20,r                      -0.03160096 [mEh]      -0.01982990 [kcal/mol]      -0.08296831 [kJ/mol]
      Exch-Ind20,r                  0.02690974 [mEh]       0.01688612 [kcal/mol]       0.07065151 [kJ/mol]
      delta HF,r (2)               -0.01692958 [mEh]      -0.01062347 [kcal/mol]      -0.04444860 [kJ/mol]

    Dispersion                     -1.34553105 [mEh]      -0.84433348 [kcal/mol]      -3.53269128 [kJ/mol]
      Disp20                       -1.38349401 [mEh]      -0.86815560 [kcal/mol]      -3.63236302 [kJ/mol]
      Exch-Disp20                   0.03796296 [mEh]       0.02382212 [kcal/mol]       0.09967174 [kJ/mol]
      Disp20 (SS)                  -0.69174700 [mEh]      -0.43407780 [kcal/mol]      -1.81618151 [kJ/mol]
      Disp20 (OS)                  -0.69174700 [mEh]      -0.43407780 [kcal/mol]      -1.81618151 [kJ/mol]
      Exch-Disp20 (SS)              0.02600424 [mEh]       0.01631791 [kcal/mol]       0.06827413 [kJ/mol]
      Exch-Disp20 (OS)              0.01195872 [mEh]       0.00750421 [kcal/mol]       0.03139761 [kJ/mol]

  Total HF                          0.20038744 [mEh]       0.12574501 [kcal/mol]       0.52611714 [kJ/mol]
  Total SAPT0                      -1.14514361 [mEh]      -0.71858847 [kcal/mol]      -3.00657414 [kJ/mol]

  Special recipe for scaled SAPT0 (see Manual):
    Electrostatics sSAPT0          -0.07775688 [mEh]      -0.04879318 [kcal/mol]      -0.20415066 [kJ/mol]
    Exchange sSAPT0                 0.29976511 [mEh]       0.18810545 [kcal/mol]       0.78703320 [kJ/mol]
    Induction sSAPT0               -0.02160017 [mEh]      -0.01355431 [kcal/mol]      -0.05671124 [kJ/mol]
    Dispersion sSAPT0              -1.34550195 [mEh]      -0.84431522 [kcal/mol]      -3.53261488 [kJ/mol]
  Total sSAPT0                     -1.14509389 [mEh]      -0.71855726 [kcal/mol]      -3.00644359 [kJ/mol]
  --------------------------------------------------------------------------------------------------------

*** Psi4 exiting successfully. Buy a developer a beer!
