                               Psi4 1.3.2 release

  ==> Input File <==

--------------------------------------------------------------------------
# Any line starting with the # character is a comment line
#! Sample  computation

memory 22 gb

molecule Dimer {

0 1
 C                  1.22993640   -0.68442766    0.44733001
 C                  1.22998540    0.68442634   -0.22280499
 H                  0.35093740   -0.81633866    1.07737501
 H                  2.11057140   -0.81468166    1.07520201
 H                  1.22857740   -1.48518166   -0.29142399
 H                  1.22840740    1.48518034    0.51594901
 H                  0.35113340    0.81629134   -0.85306299
 H                  2.11076840    0.81472334   -0.85046099
--
0 1
 C                 -1.22994140   -0.68442634   -0.44733101
 C                 -1.22998040    0.68442766    0.22280499
 H                 -1.22859940   -1.48518034    0.29142399
 H                 -0.35093940   -0.81634734   -1.07736701
 H                 -2.11057240   -0.81466934   -1.07521001
 H                 -0.35113140    0.81628366    0.85306899
 H                 -2.11076540    0.81473466    0.85045499
 H                 -1.22838740    1.48518166   -0.51594901

units angstrom
no_reorient
symmetry c1
}

set globals{
  basis jun-cc-pvtz
}

energy('sapt0')
--------------------------------------------------------------------------

  //              Dimer HF             //
    Molecular point group: c1
  Charge       = 0
  Multiplicity = 1
  Basis Set: JUN-CC-PVTZ
    Blend: JUN-CC-PVTZ
  Basis Set: (JUN-CC-PVTZ AUX)
    Blend: JUN-CC-PVTZ-JKFIT
  @DF-RHF Final Energy:  -158.43943317032691
    Total Energy =                       -158.4394331703269074
  //            Monomer A HF           //
    Molecular point group: c1
  Multiplicity = 1
  Basis Set: JUN-CC-PVTZ
    Blend: JUN-CC-PVTZ
  Basis Set: (JUN-CC-PVTZ AUX)
    Blend: JUN-CC-PVTZ-JKFIT
  @DF-RHF Final Energy:   -79.26020575644893
    Total Energy =                        -79.2602057564489257
  //            Monomer B HF           //
    Molecular point group: c1

    Geometry (in Angstrom), charge = 0, multiplicity = 1:

       Center              X                  Y                   Z               Mass
    ------------   -----------------  -----------------  -----------------  -----------------
      Gh(C)           1.229936400000    -0.684427592917     0.447330209687    12.000000000000
      Gh(C)           1.229985400000     0.684426407083    -0.222804790313    12.000000000000
      Gh(H)           0.350937400000    -0.816338592917     1.077375209687     1.007825032230
      Gh(H)           2.110571400000    -0.814681592917     1.075202209687     1.007825032230
      Gh(H)           1.228577400000    -1.485181592917    -0.291423790313     1.007825032230
      Gh(H)           1.228407400000     1.485180407083     0.515949209687     1.007825032230
      Gh(H)           0.351133400000     0.816291407083    -0.853062790313     1.007825032230
      Gh(H)           2.110768400000     0.814723407083    -0.850460790313     1.007825032230
         C           -1.229941400000    -0.684426272917    -0.447330810313    12.000000000000
         C           -1.229980400000     0.684427727083     0.222805189687    12.000000000000
         H           -1.228599400000    -1.485180272917     0.291424189687     1.007825032230
         H           -0.350939400000    -0.816347272917    -1.077366810313     1.007825032230
         H           -2.110572400000    -0.814669272917    -1.075209810313     1.007825032230
         H           -0.351131400000     0.816283727083     0.853069189687     1.007825032230
         H           -2.110765400000     0.814734727083     0.850455189687     1.007825032230
         H           -1.228387400000     1.485181727083    -0.515948810313     1.007825032230

  Charge       = 0
  Multiplicity = 1
  Basis Set: JUN-CC-PVTZ
    Blend: JUN-CC-PVTZ
  Basis Set: (JUN-CC-PVTZ AUX)
    Blend: JUN-CC-PVTZ-JKFIT

    Orbital Energies [Eh]
    ---------------------

    Doubly Occupied:

       1A    -11.210517     2A    -11.209904     3A     -1.018462
       4A     -0.841701     5A     -0.597133     6A     -0.596895
       7A     -0.509948     8A     -0.486686     9A     -0.486443

  @DF-RHF Final Energy:   -79.26020577091698

   => Energetics <=

    Nuclear Repulsion Energy =             42.3400412522638661
    One-Electron Energy =                -189.2851133431444737
    Two-Electron Energy =                  67.6848663199636320
    Total Energy =                        -79.2602057709169827

  Dipole Moment: [D]
     X:    -0.0001      Y:    -0.0000      Z:     0.0000     Total:     0.0001

    SAPT Results
  --------------------------------------------------------------------------------------------------------
    Electrostatics                -44.28917373 [mEh]     -27.79187610 [kcal/mol]    -116.28120961 [kJ/mol]
      Elst10,r                    -44.28917373 [mEh]     -27.79187610 [kcal/mol]    -116.28120961 [kJ/mol]

    Exchange                      134.69789722 [mEh]      84.52420661 [kcal/mol]     353.64928044 [kJ/mol]
      Exch10                      134.69789722 [mEh]      84.52420661 [kcal/mol]     353.64928044 [kJ/mol]
      Exch10(S^2)                 129.56587910 [mEh]      81.30381661 [kcal/mol]     340.17516870 [kJ/mol]

    Induction                      -9.43036645 [mEh]      -5.91764429 [kcal/mol]     -24.75942371 [kJ/mol]
      Ind20,r                     -38.57433878 [mEh]     -24.20576303 [kcal/mol]    -101.27691251 [kJ/mol]
      Exch-Ind20,r                 32.02342483 [mEh]      20.09500247 [kcal/mol]      84.07749032 [kJ/mol]
      delta HF,r (2)               -2.87945251 [mEh]      -1.80688373 [kcal/mol]      -7.56000152 [kJ/mol]

    Dispersion                    -33.58858818 [mEh]     -21.07715730 [kcal/mol]     -88.18682613 [kJ/mol]
      Disp20                      -42.02959019 [mEh]     -26.37396602 [kcal/mol]    -110.34867384 [kJ/mol]
      Exch-Disp20                   8.44100201 [mEh]       5.29680873 [kcal/mol]      22.16184771 [kJ/mol]
      Disp20 (SS)                 -21.01479509 [mEh]     -13.18698301 [kcal/mol]     -55.17433692 [kJ/mol]
      Disp20 (OS)                 -21.01479509 [mEh]     -13.18698301 [kcal/mol]     -55.17433692 [kJ/mol]
      Exch-Disp20 (SS)              5.51144375 [mEh]       3.45848316 [kcal/mol]      14.47029356 [kJ/mol]
      Exch-Disp20 (OS)              2.92955826 [mEh]       1.83832556 [kcal/mol]       7.69155415 [kJ/mol]

  Total HF                         80.97835704 [mEh]      50.81468621 [kcal/mol]     212.60864711 [kJ/mol]
  Total SAPT0                      47.38976886 [mEh]      29.73752892 [kcal/mol]     124.42182099 [kJ/mol]

  Special recipe for scaled SAPT0 (see Manual):
    Electrostatics sSAPT0         -44.28917373 [mEh]     -27.79187610 [kcal/mol]    -116.28120961 [kJ/mol]
    Exchange sSAPT0               134.69789722 [mEh]      84.52420661 [kcal/mol]     353.64928044 [kJ/mol]
    Induction sSAPT0               -5.47237228 [mEh]      -3.43396545 [kcal/mol]     -14.36771145 [kJ/mol]
    Dispersion sSAPT0             -32.54530699 [mEh]     -20.42248847 [kcal/mol]     -85.44769174 [kJ/mol]
  Total sSAPT0                     52.39104422 [mEh]      32.87587659 [kcal/mol]     137.55266764 [kJ/mol]
  --------------------------------------------------------------------------------------------------------

*** Psi4 exiting successfully. Buy a developer a beer!
