                               Psi4 1.3.2 release

  ==> Input File <==

--------------------------------------------------------------------------
# Any line starting with the # character is a comment line
#! Sample  computation

memory 22 gb

molecule Dimer {

0 1
 C                  1.97284607   -0.68442807    0.31275580
 C                  1.97289507    0.68442593   -0.35737920
 H                  1.09384707   -0.81633907    0.94280080
 H                  2.85348107   -0.81468207    0.94062780
 H                  1.97148707   -1.48518207   -0.42599820
 H                  1.97131707    1.48517993    0.38137480
 H                  1.09404307    0.81629093   -0.98763720
 H                  2.85367807    0.81472293   -0.98503520
--
0 1
 C                 -1.97285107   -0.68442593   -0.31275680
 C                 -1.97289007    0.68442807    0.35737920
 H                 -1.97150907   -1.48517993    0.42599820
 H                 -1.09384907   -0.81634693   -0.94279280
 H                 -2.85348207   -0.81466893   -0.94063580
 H                 -1.09404107    0.81628407    0.98764320
 H                 -2.85367507    0.81473507    0.98502920
 H                 -1.97129707    1.48518207   -0.38137480

units angstrom
no_reorient
symmetry c1
}

set globals{
  basis jun-cc-pvtz
}

energy('sapt0')
--------------------------------------------------------------------------

  //              Dimer HF             //
    Molecular point group: c1
  Charge       = 0
  Multiplicity = 1
  Basis Set: JUN-CC-PVTZ
    Blend: JUN-CC-PVTZ
  Basis Set: (JUN-CC-PVTZ AUX)
    Blend: JUN-CC-PVTZ-JKFIT
  @DF-RHF Final Energy:  -158.51939729665705
    Total Energy =                       -158.5193972966570470
  //            Monomer A HF           //
    Molecular point group: c1
  Multiplicity = 1
  Basis Set: JUN-CC-PVTZ
    Blend: JUN-CC-PVTZ
  Basis Set: (JUN-CC-PVTZ AUX)
    Blend: JUN-CC-PVTZ-JKFIT
  @DF-RHF Final Energy:   -79.26014026446671
    Total Energy =                        -79.2601402644667132
  //            Monomer B HF           //
    Molecular point group: c1

    Geometry (in Angstrom), charge = 0, multiplicity = 1:

       Center              X                  Y                   Z               Mass
    ------------   -----------------  -----------------  -----------------  -----------------
      Gh(C)           1.972846070000    -0.684428002917     0.312755999687    12.000000000000
      Gh(C)           1.972895070000     0.684425997083    -0.357379000313    12.000000000000
      Gh(H)           1.093847070000    -0.816339002917     0.942800999687     1.007825032230
      Gh(H)           2.853481070000    -0.814682002917     0.940627999687     1.007825032230
      Gh(H)           1.971487070000    -1.485182002917    -0.425998000313     1.007825032230
      Gh(H)           1.971317070000     1.485179997083     0.381374999687     1.007825032230
      Gh(H)           1.094043070000     0.816290997083    -0.987637000313     1.007825032230
      Gh(H)           2.853678070000     0.814722997083    -0.985035000313     1.007825032230
         C           -1.972851070000    -0.684425862917    -0.312756600313    12.000000000000
         C           -1.972890070000     0.684428137083     0.357379399687    12.000000000000
         H           -1.971509070000    -1.485179862917     0.425998399687     1.007825032230
         H           -1.093849070000    -0.816346862917    -0.942792600313     1.007825032230
         H           -2.853482070000    -0.814668862917    -0.940635600313     1.007825032230
         H           -1.094041070000     0.816284137083     0.987643399687     1.007825032230
         H           -2.853675070000     0.814735137083     0.985029399687     1.007825032230
         H           -1.971297070000     1.485182137083    -0.381374600313     1.007825032230

  Charge       = 0
  Multiplicity = 1
  Basis Set: JUN-CC-PVTZ
    Blend: JUN-CC-PVTZ
  Basis Set: (JUN-CC-PVTZ AUX)
    Blend: JUN-CC-PVTZ-JKFIT

    Orbital Energies [Eh]
    ---------------------

    Doubly Occupied:

       1A    -11.210506     2A    -11.209895     3A     -1.018476
       4A     -0.841711     5A     -0.597139     6A     -0.596905
       7A     -0.509952     8A     -0.486692     9A     -0.486451

  @DF-RHF Final Energy:   -79.26014027877416

   => Energetics <=

    Nuclear Repulsion Energy =             42.3400412522638661
    One-Electron Energy =                -189.2849080428337061
    Two-Electron Energy =                  67.6847265117956880
    Total Energy =                        -79.2601402787741591

  Dipole Moment: [D]
     X:    -0.0005      Y:    -0.0000      Z:     0.0000     Total:     0.0005

    SAPT Results
  --------------------------------------------------------------------------------------------------------
    Electrostatics                 -0.39674335 [mEh]      -0.24896021 [kcal/mol]      -1.04164951 [kJ/mol]
      Elst10,r                     -0.39674335 [mEh]      -0.24896021 [kcal/mol]      -1.04164951 [kJ/mol]

    Exchange                        1.38457469 [mEh]       0.86883373 [kcal/mol]       3.63520034 [kJ/mol]
      Exch10                        1.38457469 [mEh]       0.86883373 [kcal/mol]       3.63520034 [kJ/mol]
      Exch10(S^2)                   1.38330353 [mEh]       0.86803607 [kcal/mol]       3.63186293 [kJ/mol]

    Induction                      -0.10458476 [mEh]      -0.06562793 [kcal/mol]      -0.27458724 [kJ/mol]
      Ind20,r                      -0.17596514 [mEh]      -0.11041979 [kcal/mol]      -0.46199641 [kJ/mol]
      Exch-Ind20,r                  0.15483990 [mEh]       0.09716351 [kcal/mol]       0.40653211 [kJ/mol]
      delta HF,r (2)               -0.08345952 [mEh]      -0.05237164 [kcal/mol]      -0.21912294 [kJ/mol]

    Dispersion                     -2.69117510 [mEh]      -1.68873787 [kcal/mol]      -7.06567925 [kJ/mol]
      Disp20                       -2.84764330 [mEh]      -1.78692315 [kcal/mol]      -7.47648644 [kJ/mol]
      Exch-Disp20                   0.15646820 [mEh]       0.09818528 [kcal/mol]       0.41080719 [kJ/mol]
      Disp20 (SS)                  -1.42382165 [mEh]      -0.89346157 [kcal/mol]      -3.73824322 [kJ/mol]
      Disp20 (OS)                  -1.42382165 [mEh]      -0.89346157 [kcal/mol]      -3.73824322 [kJ/mol]
      Exch-Disp20 (SS)              0.10423721 [mEh]       0.06540983 [kcal/mol]       0.27367475 [kJ/mol]
      Exch-Disp20 (OS)              0.05223099 [mEh]       0.03277544 [kcal/mol]       0.13713244 [kJ/mol]

  Total HF                          0.88324658 [mEh]       0.55424560 [kcal/mol]       2.31896359 [kJ/mol]
  Total SAPT0                      -1.80792852 [mEh]      -1.13449227 [kcal/mol]      -4.74671567 [kJ/mol]

  Special recipe for scaled SAPT0 (see Manual):
    Electrostatics sSAPT0          -0.39674335 [mEh]      -0.24896021 [kcal/mol]      -1.04164951 [kJ/mol]
    Exchange sSAPT0                 1.38457469 [mEh]       0.86883373 [kcal/mol]       3.63520034 [kJ/mol]
    Induction sSAPT0               -0.10415750 [mEh]      -0.06535982 [kcal/mol]      -0.27346549 [kJ/mol]
    Dispersion sSAPT0              -2.69074336 [mEh]      -1.68846695 [kcal/mol]      -7.06454571 [kJ/mol]
  Total sSAPT0                     -1.80706952 [mEh]      -1.13395324 [kcal/mol]      -4.74446037 [kJ/mol]
  --------------------------------------------------------------------------------------------------------

*** Psi4 exiting successfully. Buy a developer a beer!
