                               Psi4 1.3.2 release

  ==> Input File <==

--------------------------------------------------------------------------
# Any line starting with the # character is a comment line
#! Sample  computation

memory 22 gb

molecule Dimer {

0 1
 C                  2.94207260   -0.68442859    0.13718546
 C                  2.94212160    0.68442541   -0.53294954
 H                  2.06307360   -0.81633959    0.76723046
 H                  3.82270760   -0.81468259    0.76505746
 H                  2.94071360   -1.48518259   -0.60156854
 H                  2.94054360    1.48517941    0.20580446
 H                  2.06326960    0.81629041   -1.16320754
 H                  3.82290460    0.81472241   -1.16060554
--
0 1
 C                 -2.94207760   -0.68442541   -0.13718646
 C                 -2.94211660    0.68442859    0.53294954
 H                 -2.94073560   -1.48517941    0.60156854
 H                 -2.06307560   -0.81634641   -0.76722246
 H                 -3.82270860   -0.81466841   -0.76506546
 H                 -2.06326760    0.81628459    1.16321354
 H                 -3.82290160    0.81473559    1.16059954
 H                 -2.94052360    1.48518259   -0.20580446

units angstrom
no_reorient
symmetry c1
}

set globals{
  basis jun-cc-pvtz
}

energy('sapt0')
--------------------------------------------------------------------------

  //              Dimer HF             //
    Molecular point group: c1
  Charge       = 0
  Multiplicity = 1
  Basis Set: JUN-CC-PVTZ
    Blend: JUN-CC-PVTZ
  Basis Set: (JUN-CC-PVTZ AUX)
    Blend: JUN-CC-PVTZ-JKFIT
  @DF-RHF Final Energy:  -158.52025281086233
    Total Energy =                       -158.5202528108623312
  //            Monomer A HF           //
    Molecular point group: c1
  Multiplicity = 1
  Basis Set: JUN-CC-PVTZ
    Blend: JUN-CC-PVTZ
  Basis Set: (JUN-CC-PVTZ AUX)
    Blend: JUN-CC-PVTZ-JKFIT
  @DF-RHF Final Energy:   -79.26012843990415
    Total Energy =                        -79.2601284399041504
  //            Monomer B HF           //
    Molecular point group: c1

    Geometry (in Angstrom), charge = 0, multiplicity = 1:

       Center              X                  Y                   Z               Mass
    ------------   -----------------  -----------------  -----------------  -----------------
      Gh(C)           2.942072600000    -0.684428522917     0.137185659687    12.000000000000
      Gh(C)           2.942121600000     0.684425477083    -0.532949340313    12.000000000000
      Gh(H)           2.063073600000    -0.816339522917     0.767230659687     1.007825032230
      Gh(H)           3.822707600000    -0.814682522917     0.765057659687     1.007825032230
      Gh(H)           2.940713600000    -1.485182522917    -0.601568340313     1.007825032230
      Gh(H)           2.940543600000     1.485179477083     0.205804659687     1.007825032230
      Gh(H)           2.063269600000     0.816290477083    -1.163207340313     1.007825032230
      Gh(H)           3.822904600000     0.814722477083    -1.160605340313     1.007825032230
         C           -2.942077600000    -0.684425342917    -0.137186260313    12.000000000000
         C           -2.942116600000     0.684428657083     0.532949739687    12.000000000000
         H           -2.940735600000    -1.485179342917     0.601568739687     1.007825032230
         H           -2.063075600000    -0.816346342917    -0.767222260313     1.007825032230
         H           -3.822708600000    -0.814668342917    -0.765065260313     1.007825032230
         H           -2.063267600000     0.816284657083     1.163213739687     1.007825032230
         H           -3.822901600000     0.814735657083     1.160599739687     1.007825032230
         H           -2.940523600000     1.485182657083    -0.205804260313     1.007825032230

  Charge       = 0
  Multiplicity = 1
  Basis Set: JUN-CC-PVTZ
    Blend: JUN-CC-PVTZ
  Basis Set: (JUN-CC-PVTZ AUX)
    Blend: JUN-CC-PVTZ-JKFIT

    Orbital Energies [Eh]
    ---------------------

    Doubly Occupied:

       1A    -11.210509     2A    -11.209898     3A     -1.018478
       4A     -0.841712     5A     -0.597140     6A     -0.596909
       7A     -0.509951     8A     -0.486693     9A     -0.486453

  @DF-RHF Final Energy:   -79.26012845411277

   => Energetics <=

    Nuclear Repulsion Energy =             42.3400412522638518
    One-Electron Energy =                -189.2848542521626882
    Two-Electron Energy =                  67.6846845457860553
    Total Energy =                        -79.2601284541127740

  Dipole Moment: [D]
     X:     0.0000      Y:     0.0000      Z:    -0.0000     Total:     0.0000

    SAPT Results
  --------------------------------------------------------------------------------------------------------
    Electrostatics                  0.00236821 [mEh]       0.00148608 [kcal/mol]       0.00621775 [kJ/mol]
      Elst10,r                      0.00236821 [mEh]       0.00148608 [kcal/mol]       0.00621775 [kJ/mol]

    Exchange                        0.00187526 [mEh]       0.00117674 [kcal/mol]       0.00492350 [kJ/mol]
      Exch10                        0.00187526 [mEh]       0.00117674 [kcal/mol]       0.00492350 [kJ/mol]
      Exch10(S^2)                   0.00187526 [mEh]       0.00117674 [kcal/mol]       0.00492349 [kJ/mol]

    Induction                      -0.00016032 [mEh]      -0.00010060 [kcal/mol]      -0.00042093 [kJ/mol]
      Ind20,r                      -0.00015939 [mEh]      -0.00010002 [kcal/mol]      -0.00041849 [kJ/mol]
      Exch-Ind20,r                  0.00009271 [mEh]       0.00005818 [kcal/mol]       0.00024341 [kJ/mol]
      delta HF,r (2)               -0.00009364 [mEh]      -0.00005876 [kcal/mol]      -0.00024584 [kJ/mol]

    Dispersion                     -0.21369190 [mEh]      -0.13409369 [kcal/mol]      -0.56104800 [kJ/mol]
      Disp20                       -0.21401132 [mEh]      -0.13429413 [kcal/mol]      -0.56188665 [kJ/mol]
      Exch-Disp20                   0.00031942 [mEh]       0.00020044 [kcal/mol]       0.00083864 [kJ/mol]
      Disp20 (SS)                  -0.10700566 [mEh]      -0.06714707 [kcal/mol]      -0.28094332 [kJ/mol]
      Disp20 (OS)                  -0.10700566 [mEh]      -0.06714707 [kcal/mol]      -0.28094332 [kJ/mol]
      Exch-Disp20 (SS)              0.00024161 [mEh]       0.00015161 [kcal/mol]       0.00063435 [kJ/mol]
      Exch-Disp20 (OS)              0.00007781 [mEh]       0.00004883 [kcal/mol]       0.00020429 [kJ/mol]

  Total HF                          0.00408315 [mEh]       0.00256222 [kcal/mol]       0.01072032 [kJ/mol]
  Total SAPT0                      -0.20960874 [mEh]      -0.13153147 [kcal/mol]      -0.55032768 [kJ/mol]

  Special recipe for scaled SAPT0 (see Manual):
    Electrostatics sSAPT0           0.00236821 [mEh]       0.00148608 [kcal/mol]       0.00621775 [kJ/mol]
    Exchange sSAPT0                 0.00187526 [mEh]       0.00117674 [kcal/mol]       0.00492350 [kJ/mol]
    Induction sSAPT0               -0.00016032 [mEh]      -0.00010060 [kcal/mol]      -0.00042093 [kJ/mol]
    Dispersion sSAPT0              -0.21369190 [mEh]      -0.13409369 [kcal/mol]      -0.56104800 [kJ/mol]
  Total sSAPT0                     -0.20960874 [mEh]      -0.13153147 [kcal/mol]      -0.55032768 [kJ/mol]
  --------------------------------------------------------------------------------------------------------

*** Psi4 exiting successfully. Buy a developer a beer!
