                               Psi4 1.3.2 release

  ==> Input File <==

--------------------------------------------------------------------------
# Any line starting with the # character is a comment line
#! Sample  computation

memory 22 gb

molecule Dimer {

0 1
 C                  2.45007944   -0.68442833    0.22630746
 C                  2.45012844    0.68442567   -0.44382754
 H                  1.57108044   -0.81633933    0.85635246
 H                  3.33071444   -0.81468233    0.85417946
 H                  2.44872044   -1.48518233   -0.51244654
 H                  2.44855044    1.48517967    0.29492646
 H                  1.57127644    0.81629067   -1.07408554
 H                  3.33091144    0.81472267   -1.07148354
--
0 1
 C                 -2.45008444   -0.68442567   -0.22630846
 C                 -2.45012344    0.68442833    0.44382754
 H                 -2.44874244   -1.48517967    0.51244654
 H                 -1.57108244   -0.81634667   -0.85634446
 H                 -3.33071544   -0.81466867   -0.85418746
 H                 -1.57127444    0.81628433    1.07409154
 H                 -3.33090844    0.81473533    1.07147754
 H                 -2.44853044    1.48518233   -0.29492646

units angstrom
no_reorient
symmetry c1
}

set globals{
  basis jun-cc-pvtz
}

energy('sapt0')
--------------------------------------------------------------------------

  //              Dimer HF             //
    Molecular point group: c1
  Charge       = 0
  Multiplicity = 1
  Basis Set: JUN-CC-PVTZ
    Blend: JUN-CC-PVTZ
  Basis Set: (JUN-CC-PVTZ AUX)
    Blend: JUN-CC-PVTZ-JKFIT
  @DF-RHF Final Energy:  -158.52021866756351
    Total Energy =                       -158.5202186675635119
  //            Monomer A HF           //
    Molecular point group: c1
  Multiplicity = 1
  Basis Set: JUN-CC-PVTZ
    Blend: JUN-CC-PVTZ
  Basis Set: (JUN-CC-PVTZ AUX)
    Blend: JUN-CC-PVTZ-JKFIT
  @DF-RHF Final Energy:   -79.26013077187794
    Total Energy =                        -79.2601307718779395
  //            Monomer B HF           //
    Molecular point group: c1

    Geometry (in Angstrom), charge = 0, multiplicity = 1:

       Center              X                  Y                   Z               Mass
    ------------   -----------------  -----------------  -----------------  -----------------
      Gh(C)           2.450079440000    -0.684428262917     0.226307659687    12.000000000000
      Gh(C)           2.450128440000     0.684425737083    -0.443827340313    12.000000000000
      Gh(H)           1.571080440000    -0.816339262917     0.856352659687     1.007825032230
      Gh(H)           3.330714440000    -0.814682262917     0.854179659687     1.007825032230
      Gh(H)           2.448720440000    -1.485182262917    -0.512446340313     1.007825032230
      Gh(H)           2.448550440000     1.485179737083     0.294926659687     1.007825032230
      Gh(H)           1.571276440000     0.816290737083    -1.074085340313     1.007825032230
      Gh(H)           3.330911440000     0.814722737083    -1.071483340313     1.007825032230
         C           -2.450084440000    -0.684425602917    -0.226308260313    12.000000000000
         C           -2.450123440000     0.684428397083     0.443827739687    12.000000000000
         H           -2.448742440000    -1.485179602917     0.512446739687     1.007825032230
         H           -1.571082440000    -0.816346602917    -0.856344260313     1.007825032230
         H           -3.330715440000    -0.814668602917    -0.854187260313     1.007825032230
         H           -1.571274440000     0.816284397083     1.074091739687     1.007825032230
         H           -3.330908440000     0.814735397083     1.071477739687     1.007825032230
         H           -2.448530440000     1.485182397083    -0.294926260313     1.007825032230

  Charge       = 0
  Multiplicity = 1
  Basis Set: JUN-CC-PVTZ
    Blend: JUN-CC-PVTZ
  Basis Set: (JUN-CC-PVTZ AUX)
    Blend: JUN-CC-PVTZ-JKFIT

    Orbital Energies [Eh]
    ---------------------

    Doubly Occupied:

       1A    -11.210509     2A    -11.209898     3A     -1.018479
       4A     -0.841713     5A     -0.597140     6A     -0.596909
       7A     -0.509951     8A     -0.486693     9A     -0.486454

  @DF-RHF Final Energy:   -79.26013078615604

   => Energetics <=

    Nuclear Repulsion Energy =             42.3400412522638661
    One-Electron Energy =                -189.2848516752760588
    Two-Electron Energy =                  67.6846796368561598
    Total Energy =                        -79.2601307861560400

  Dipole Moment: [D]
     X:     0.0000      Y:     0.0000      Z:     0.0000     Total:     0.0000

    SAPT Results
  --------------------------------------------------------------------------------------------------------
    Electrostatics                 -0.00978398 [mEh]      -0.00613954 [kcal/mol]      -0.02568784 [kJ/mol]
      Elst10,r                     -0.00978398 [mEh]      -0.00613954 [kcal/mol]      -0.02568784 [kJ/mol]

    Exchange                        0.05664566 [mEh]       0.03554569 [kcal/mol]       0.14872316 [kJ/mol]
      Exch10                        0.05664566 [mEh]       0.03554569 [kcal/mol]       0.14872316 [kJ/mol]
      Exch10(S^2)                   0.05664220 [mEh]       0.03554352 [kcal/mol]       0.14871408 [kJ/mol]

    Induction                      -0.00397121 [mEh]      -0.00249197 [kcal/mol]      -0.01042641 [kJ/mol]
      Ind20,r                      -0.00507552 [mEh]      -0.00318494 [kcal/mol]      -0.01332578 [kJ/mol]
      Exch-Ind20,r                  0.00411552 [mEh]       0.00258253 [kcal/mol]       0.01080530 [kJ/mol]
      delta HF,r (2)               -0.00301121 [mEh]      -0.00188956 [kcal/mol]      -0.00790593 [kJ/mol]

    Dispersion                     -0.68553875 [mEh]      -0.43018206 [kcal/mol]      -1.79988175 [kJ/mol]
      Disp20                       -0.69360447 [mEh]      -0.43524338 [kcal/mol]      -1.82105829 [kJ/mol]
      Exch-Disp20                   0.00806572 [mEh]       0.00506132 [kcal/mol]       0.02117654 [kJ/mol]
      Disp20 (SS)                  -0.34680224 [mEh]      -0.21762169 [kcal/mol]      -0.91052915 [kJ/mol]
      Disp20 (OS)                  -0.34680224 [mEh]      -0.21762169 [kcal/mol]      -0.91052915 [kJ/mol]
      Exch-Disp20 (SS)              0.00572707 [mEh]       0.00359379 [kcal/mol]       0.01503642 [kJ/mol]
      Exch-Disp20 (OS)              0.00233865 [mEh]       0.00146752 [kcal/mol]       0.00614012 [kJ/mol]

  Total HF                          0.04289047 [mEh]       0.02691418 [kcal/mol]       0.11260891 [kJ/mol]
  Total SAPT0                      -0.64264828 [mEh]      -0.40326789 [kcal/mol]      -1.68727283 [kJ/mol]

  Special recipe for scaled SAPT0 (see Manual):
    Electrostatics sSAPT0          -0.00978398 [mEh]      -0.00613954 [kcal/mol]      -0.02568784 [kJ/mol]
    Exchange sSAPT0                 0.05664566 [mEh]       0.03554569 [kcal/mol]       0.14872316 [kJ/mol]
    Induction sSAPT0               -0.00397046 [mEh]      -0.00249150 [kcal/mol]      -0.01042443 [kJ/mol]
    Dispersion sSAPT0              -0.68553728 [mEh]      -0.43018114 [kcal/mol]      -1.79987787 [kJ/mol]
  Total sSAPT0                     -0.64264605 [mEh]      -0.40326649 [kcal/mol]      -1.68726698 [kJ/mol]
  --------------------------------------------------------------------------------------------------------

*** Psi4 exiting successfully. Buy a developer a beer!
