                               Psi4 1.3.2 release

  ==> Input File <==

--------------------------------------------------------------------------
# Any line starting with the # character is a comment line
#! Sample  computation

memory 22 gb

molecule Dimer {

0 1
 C                 -0.86797659    0.88267721   -0.17247972
 C                 -1.76523359    0.03298621    0.33456128
 C                 -1.87721959   -1.40609779   -0.05559272
 H                 -0.83345859    1.91672021    0.14159128
 H                 -0.14867159    0.55475121   -0.91235972
 H                 -2.46647159    0.39693521    1.07873728
 H                 -2.86498159   -1.62142579   -0.46623672
 H                 -1.12663359   -1.66701579   -0.80028572
 H                 -1.74359359   -2.05747879    0.81008128
--
0 1
 C                  0.86814059   -0.88269421    0.17300672
 C                  1.76479459   -0.03291121   -0.33494628
 C                  1.87741359    1.40605579    0.05543572
 H                  0.83314459   -1.91663221   -0.14135428
 H                  0.14982859   -0.55497421    0.91394172
 H                  2.46502259   -0.39670321   -1.08015328
 H                  1.74266659    2.05768479   -0.80988228
 H                  1.12787859    1.66685479    0.80123072
 H                  2.86575759    1.62118779    0.46478172

units angstrom
no_reorient
symmetry c1
}

set globals{
  basis jun-cc-pvtz
}

energy('sapt0')
--------------------------------------------------------------------------

  //              Dimer HF             //
    Molecular point group: c1
  Charge       = 0
  Multiplicity = 1
  Basis Set: JUN-CC-PVTZ
    Blend: JUN-CC-PVTZ
  Basis Set: (JUN-CC-PVTZ AUX)
    Blend: JUN-CC-PVTZ-JKFIT
  @DF-RHF Final Energy:  -234.15935136861594
    Total Energy =                       -234.1593513686159440
  //            Monomer A HF           //
    Molecular point group: c1
  Multiplicity = 1
  Basis Set: JUN-CC-PVTZ
    Blend: JUN-CC-PVTZ
  Basis Set: (JUN-CC-PVTZ AUX)
    Blend: JUN-CC-PVTZ-JKFIT
  @DF-RHF Final Energy:  -117.11698200942644
    Total Energy =                       -117.1169820094264367
  //            Monomer B HF           //
    Molecular point group: c1

    Geometry (in Angstrom), charge = 0, multiplicity = 1:

       Center              X                  Y                   Z               Mass
    ------------   -----------------  -----------------  -----------------  -----------------
      Gh(C)          -0.867970879938     0.882676077352    -0.172478682111    12.000000000000
      Gh(C)          -1.765227879938     0.032985077352     0.334562317889    12.000000000000
      Gh(C)          -1.877213879938    -1.406098922648    -0.055591682111    12.000000000000
      Gh(H)          -0.833452879938     1.916719077352     0.141592317889     1.007825032230
      Gh(H)          -0.148665879938     0.554750077352    -0.912358682111     1.007825032230
      Gh(H)          -2.466465879938     0.396934077352     1.078738317889     1.007825032230
      Gh(H)          -2.864975879938    -1.621426922648    -0.466235682111     1.007825032230
      Gh(H)          -1.126627879938    -1.667016922648    -0.800284682111     1.007825032230
      Gh(H)          -1.743587879938    -2.057479922648     0.810082317889     1.007825032230
         C            0.868146300062    -0.882695342648     0.173007757889    12.000000000000
         C            1.764800300062    -0.032912342648    -0.334945242111    12.000000000000
         C            1.877419300062     1.406054657352     0.055436757889    12.000000000000
         H            0.833150300062    -1.916633342648    -0.141353242111     1.007825032230
         H            0.149834300062    -0.554975342648     0.913942757889     1.007825032230
         H            2.465028300062    -0.396704342648    -1.080152242111     1.007825032230
         H            1.742672300062     2.057683657352    -0.809881242111     1.007825032230
         H            1.127884300062     1.666853657352     0.801231757889     1.007825032230
         H            2.865763300062     1.621186657352     0.464782757889     1.007825032230

  Charge       = 0
  Multiplicity = 1
  Basis Set: JUN-CC-PVTZ
    Blend: JUN-CC-PVTZ
  Basis Set: (JUN-CC-PVTZ AUX)
    Blend: JUN-CC-PVTZ-JKFIT

    Orbital Energies [Eh]
    ---------------------

    Doubly Occupied:

       1A    -11.234374     2A    -11.220803     3A    -11.217529
       4A     -1.064914     5A     -0.932771     6A     -0.758065
       7A     -0.640029     8A     -0.582586     9A     -0.568346
      10A     -0.523374    11A     -0.493116    12A     -0.358017

  @DF-RHF Final Energy:  -117.11698244382859

   => Energetics <=

    Nuclear Repulsion Energy =             70.8713837239297959
    One-Electron Energy =                -296.7888841561963886
    Two-Electron Energy =                 108.8005179884380027
    Total Energy =                       -117.1169824438285900

  Dipole Moment: [D]
     X:     0.2101      Y:     0.3619      Z:    -0.0646     Total:     0.4234

    SAPT Results
  --------------------------------------------------------------------------------------------------------
    Electrostatics                -52.29551943 [mEh]     -32.81593388 [kcal/mol]    -137.30186736 [kJ/mol]
      Elst10,r                    -52.29551943 [mEh]     -32.81593388 [kcal/mol]    -137.30186736 [kJ/mol]

    Exchange                      137.68643481 [mEh]      86.39954225 [kcal/mol]     361.49568479 [kJ/mol]
      Exch10                      137.68643481 [mEh]      86.39954225 [kcal/mol]     361.49568479 [kJ/mol]
      Exch10(S^2)                 130.58821045 [mEh]      81.94533922 [kcal/mol]     342.85929930 [kJ/mol]

    Induction                     -10.77783074 [mEh]      -6.76319089 [kcal/mol]     -28.29719070 [kJ/mol]
      Ind20,r                     -57.82247731 [mEh]     -36.28415231 [kcal/mol]    -151.81289327 [kJ/mol]
      Exch-Ind20,r                 49.19869933 [mEh]      30.87264993 [kcal/mol]     129.17116729 [kJ/mol]
      delta HF,r (2)               -2.15405275 [mEh]      -1.35168851 [kcal/mol]      -5.65546472 [kJ/mol]

    Dispersion                    -34.29805115 [mEh]     -21.52235203 [kcal/mol]     -90.04952088 [kJ/mol]
      Disp20                      -44.17782212 [mEh]     -27.72200191 [kcal/mol]    -115.98885601 [kJ/mol]
      Exch-Disp20                   9.87977098 [mEh]       6.19964989 [kcal/mol]      25.93933512 [kJ/mol]
      Disp20 (SS)                 -22.08891106 [mEh]     -13.86100096 [kcal/mol]     -57.99442800 [kJ/mol]
      Disp20 (OS)                 -22.08891106 [mEh]     -13.86100096 [kcal/mol]     -57.99442800 [kJ/mol]
      Exch-Disp20 (SS)              6.46879709 [mEh]       4.05923146 [kcal/mol]      16.98382443 [kJ/mol]
      Exch-Disp20 (OS)              3.41097388 [mEh]       2.14041842 [kcal/mol]       8.95551069 [kJ/mol]

  Total HF                         74.61308464 [mEh]      46.82041748 [kcal/mol]     195.89662673 [kJ/mol]
  Total SAPT0                      40.31503349 [mEh]      25.29806545 [kcal/mol]     105.84710585 [kJ/mol]

  Special recipe for scaled SAPT0 (see Manual):
    Electrostatics sSAPT0         -52.29551943 [mEh]     -32.81593388 [kcal/mol]    -137.30186736 [kJ/mol]
    Exchange sSAPT0               137.68643481 [mEh]      86.39954225 [kcal/mol]     361.49568479 [kJ/mol]
    Induction sSAPT0               -2.31114797 [mEh]      -1.45026724 [kcal/mol]      -6.06791815 [kJ/mol]
    Dispersion sSAPT0             -32.59782558 [mEh]     -20.45544437 [kcal/mol]     -85.58557926 [kJ/mol]
  Total sSAPT0                     50.48194183 [mEh]      31.67789675 [kcal/mol]     132.54032001 [kJ/mol]
  --------------------------------------------------------------------------------------------------------

*** Psi4 exiting successfully. Buy a developer a beer!
