                               Psi4 1.3.2 release

  ==> Input File <==

--------------------------------------------------------------------------
# Any line starting with the # character is a comment line
#! Sample  computation

memory 22 gb

molecule Dimer {

0 1
C         -1.30395400   1.32600100   -0.2592390
C         -2.20121100   0.47631000   0.2478020
C         -2.31319700   -0.96277400   -0.1423520
H         -1.26943600   2.36004400   0.0548320
H         -0.58464900   0.99807500   -0.9991190
H         -2.90244900   0.84025900   0.9919780
H         -3.30095900   -1.17810200   -0.5529960
H         -1.56261100   -1.22369200   -0.8870450
H         -2.17957100   -1.61415500   0.7233220
--
0 1
C         1.30411800   -1.32601800   0.2597660
C         2.20077200   -0.47623500   -0.2481870
C         2.31339100   0.96273200   0.1421950
H         1.26912200   -2.35995600   -0.0545950
H         0.58580600   -0.99829800   1.0007010
H         2.90100000   -0.84002700   -0.9933940
H         2.17864400   1.61436100   -0.7231230
H         1.56385600   1.22353100   0.8879900
H         3.30173500   1.17786400   0.5515410

units angstrom
no_reorient
symmetry c1
}

set globals{
  basis jun-cc-pvtz
}

energy('sapt0')
--------------------------------------------------------------------------

  //              Dimer HF             //
    Molecular point group: c1
  Charge       = 0
  Multiplicity = 1
  Basis Set: JUN-CC-PVTZ
    Blend: JUN-CC-PVTZ
  Basis Set: (JUN-CC-PVTZ AUX)
    Blend: JUN-CC-PVTZ-JKFIT
  @DF-RHF Final Energy:  -234.23141674403064
    Total Energy =                       -234.2314167440306392
  //            Monomer A HF           //
    Molecular point group: c1
  Multiplicity = 1
  Basis Set: JUN-CC-PVTZ
    Blend: JUN-CC-PVTZ
  Basis Set: (JUN-CC-PVTZ AUX)
    Blend: JUN-CC-PVTZ-JKFIT
  @DF-RHF Final Energy:  -117.11688207299738
    Total Energy =                       -117.1168820729973845
  //            Monomer B HF           //
    Molecular point group: c1

    Geometry (in Angstrom), charge = 0, multiplicity = 1:

       Center              X                  Y                   Z               Mass
    ------------   -----------------  -----------------  -----------------  -----------------
      Gh(C)          -1.303948289938     1.325999867352    -0.259237962111    12.000000000000
      Gh(C)          -2.201205289938     0.476308867352     0.247803037889    12.000000000000
      Gh(C)          -2.313191289938    -0.962775132648    -0.142350962111    12.000000000000
      Gh(H)          -1.269430289938     2.360042867352     0.054833037889     1.007825032230
      Gh(H)          -0.584643289938     0.998073867352    -0.999117962111     1.007825032230
      Gh(H)          -2.902443289938     0.840257867352     0.991979037889     1.007825032230
      Gh(H)          -3.300953289938    -1.178103132648    -0.552994962111     1.007825032230
      Gh(H)          -1.562605289938    -1.223693132648    -0.887043962111     1.007825032230
      Gh(H)          -2.179565289938    -1.614156132648     0.723323037889     1.007825032230
         C            1.304123710062    -1.326019132648     0.259767037889    12.000000000000
         C            2.200777710062    -0.476236132648    -0.248185962111    12.000000000000
         C            2.313396710062     0.962730867352     0.142196037889    12.000000000000
         H            1.269127710062    -2.359957132648    -0.054593962111     1.007825032230
         H            0.585811710062    -0.998299132648     1.000702037889     1.007825032230
         H            2.901005710062    -0.840028132648    -0.993392962111     1.007825032230
         H            2.178649710062     1.614359867352    -0.723121962111     1.007825032230
         H            1.563861710062     1.223529867352     0.887991037889     1.007825032230
         H            3.301740710062     1.177862867352     0.551542037889     1.007825032230

  Charge       = 0
  Multiplicity = 1
  Basis Set: JUN-CC-PVTZ
    Blend: JUN-CC-PVTZ
  Basis Set: (JUN-CC-PVTZ AUX)
    Blend: JUN-CC-PVTZ-JKFIT

    Orbital Energies [Eh]
    ---------------------

    Doubly Occupied:

       1A    -11.234386     2A    -11.220816     3A    -11.217527
       4A     -1.064930     5A     -0.932793     6A     -0.758090
       7A     -0.640062     8A     -0.582619     9A     -0.568357
      10A     -0.523402    11A     -0.493149    12A     -0.357996

  @DF-RHF Final Energy:  -117.11688233668538

   => Energetics <=

    Nuclear Repulsion Energy =             70.8713837239297959
    One-Electron Energy =                -296.7882775914810054
    Two-Electron Energy =                 108.8000115308658309
    Total Energy =                       -117.1168823366853786

  Dipole Moment: [D]
     X:     0.2103      Y:     0.3617      Z:    -0.0649     Total:     0.4234

    SAPT Results
  --------------------------------------------------------------------------------------------------------
    Electrostatics                 -2.37960436 [mEh]      -1.49322428 [kcal/mol]      -6.24765039 [kJ/mol]
      Elst10,r                     -2.37960436 [mEh]      -1.49322428 [kcal/mol]      -6.24765039 [kJ/mol]

    Exchange                        5.26238157 [mEh]       3.30219429 [kcal/mol]      13.81638091 [kJ/mol]
      Exch10                        5.26238157 [mEh]       3.30219429 [kcal/mol]      13.81638091 [kJ/mol]
      Exch10(S^2)                   5.24580733 [mEh]       3.29179380 [kcal/mol]      13.77286524 [kJ/mol]

    Induction                      -0.53511156 [mEh]      -0.33578757 [kcal/mol]      -1.40493520 [kJ/mol]
      Ind20,r                      -1.46022146 [mEh]      -0.91630280 [kcal/mol]      -3.83381092 [kJ/mol]
      Exch-Ind20,r                  1.33480805 [mEh]       0.83760470 [kcal/mol]       3.50453806 [kJ/mol]
      delta HF,r (2)               -0.40969815 [mEh]      -0.25708947 [kcal/mol]      -1.07566234 [kJ/mol]

    Dispersion                     -5.62924949 [mEh]      -3.53240738 [kcal/mol]     -14.77959250 [kJ/mol]
      Disp20                       -6.30264771 [mEh]      -3.95497115 [kcal/mol]     -16.54759928 [kJ/mol]
      Exch-Disp20                   0.67339822 [mEh]       0.42256376 [kcal/mol]       1.76800678 [kJ/mol]
      Disp20 (SS)                  -3.15132385 [mEh]      -1.97748557 [kcal/mol]      -8.27379964 [kJ/mol]
      Disp20 (OS)                  -3.15132385 [mEh]      -1.97748557 [kcal/mol]      -8.27379964 [kJ/mol]
      Exch-Disp20 (SS)              0.43936859 [mEh]       0.27570795 [kcal/mol]       1.15356207 [kJ/mol]
      Exch-Disp20 (OS)              0.23402963 [mEh]       0.14685581 [kcal/mol]       0.61444471 [kJ/mol]

  Total HF                          2.34766565 [mEh]       1.47318244 [kcal/mol]       6.16379532 [kJ/mol]
  Total SAPT0                      -3.28158384 [mEh]      -2.05922495 [kcal/mol]      -8.61579718 [kJ/mol]

  Special recipe for scaled SAPT0 (see Manual):
    Electrostatics sSAPT0          -2.37960436 [mEh]      -1.49322428 [kcal/mol]      -6.24765039 [kJ/mol]
    Exchange sSAPT0                 5.26238157 [mEh]       3.30219429 [kcal/mol]      13.81638091 [kJ/mol]
    Induction sSAPT0               -0.52241947 [mEh]      -0.32782317 [kcal/mol]      -1.37161214 [kJ/mol]
    Dispersion sSAPT0              -5.62284645 [mEh]      -3.52838942 [kcal/mol]     -14.76278133 [kJ/mol]
  Total sSAPT0                     -3.26248872 [mEh]      -2.04724258 [kcal/mol]      -8.56566295 [kJ/mol]
  --------------------------------------------------------------------------------------------------------

*** Psi4 exiting successfully. Buy a developer a beer!
