                               Psi4 1.3.2 release

  ==> Input File <==

--------------------------------------------------------------------------
# Any line starting with the # character is a comment line
#! Sample  computation

memory 22 gb

molecule Dimer {

0 1
 C                 -3.15578621   -1.23360743   -0.04360366
 C                 -2.84480821   -0.05064943   -0.95216666
 C                 -2.94576321    1.27858557   -0.21448666
 H                 -2.46611221   -1.26492643    0.80136234
 H                 -4.16697321   -1.15605343    0.35853434
 H                 -3.07709621   -2.18168143   -0.57517066
 H                 -3.53207921   -0.05103743   -1.80076566
 H                 -1.84128721   -0.16346143   -1.36754866
 H                 -2.71938221    2.12091157   -0.86796266
 H                 -3.95101021    1.42251157    0.18438234
 H                 -2.24895121    1.30970557    0.62459534
--
0 1
 C                  3.15548721   -1.23379557    0.04359966
 C                  2.84495121   -0.05075457    0.95220666
 C                  2.94593821    1.27843543    0.21445366
 H                  2.46557321   -1.26506557   -0.80117834
 H                  4.16657321   -1.15640457   -0.35882234
 H                  3.07679121   -2.18183257    0.57523066
 H                  3.53243921   -0.05122357    1.80062966
 H                  1.84151421   -0.16337857    1.36785166
 H                  2.71992321    2.12081943    0.86798166
 H                  3.95109021    1.42216443   -0.18472634
 H                  2.24887421    1.30966043   -0.62440534

units angstrom
no_reorient
symmetry c1
}

set globals{
  basis jun-cc-pvtz
}

energy('sapt0')
--------------------------------------------------------------------------

  //              Dimer HF             //
    Molecular point group: c1
  Charge       = 0
  Multiplicity = 1
  Basis Set: JUN-CC-PVTZ
    Blend: JUN-CC-PVTZ
  Basis Set: (JUN-CC-PVTZ AUX)
    Blend: JUN-CC-PVTZ-JKFIT
  @DF-RHF Final Energy:  -236.61614236377838
    Total Energy =                       -236.6161423637783514
  //            Monomer A HF           //
    Molecular point group: c1
  Multiplicity = 1
  Basis Set: JUN-CC-PVTZ
    Blend: JUN-CC-PVTZ
  Basis Set: (JUN-CC-PVTZ AUX)
    Blend: JUN-CC-PVTZ-JKFIT
  @DF-RHF Final Energy:  -118.30807638192711
    Total Energy =                       -118.3080763819271084
  //            Monomer B HF           //
    Molecular point group: c1

    Geometry (in Angstrom), charge = 0, multiplicity = 1:

       Center              X                  Y                   Z               Mass
    ------------   -----------------  -----------------  -----------------  -----------------
      Gh(C)          -3.155787504928    -1.232811168463    -0.043603931274    12.000000000000
      Gh(C)          -2.844809504928    -0.049853168463    -0.952166931274    12.000000000000
      Gh(C)          -2.945764504928     1.279381831537    -0.214486931274    12.000000000000
      Gh(H)          -2.466113504928    -1.264130168463     0.801362068726     1.007825032230
      Gh(H)          -4.166974504928    -1.155257168463     0.358534068726     1.007825032230
      Gh(H)          -3.077097504928    -2.180885168463    -0.575170931274     1.007825032230
      Gh(H)          -3.532080504928    -0.050241168463    -1.800765931274     1.007825032230
      Gh(H)          -1.841288504928    -0.162665168463    -1.367548931274     1.007825032230
      Gh(H)          -2.719383504928     2.121707831537    -0.867962931274     1.007825032230
      Gh(H)          -3.951011504928     1.423307831537     0.184382068726     1.007825032230
      Gh(H)          -2.248952504928     1.310501831537     0.624595068726     1.007825032230
         C            3.155485915072    -1.232999308463     0.043599388726    12.000000000000
         C            2.844949915072    -0.049958308463     0.952206388726    12.000000000000
         C            2.945936915072     1.279231691537     0.214453388726    12.000000000000
         H            2.465571915072    -1.264269308463    -0.801178611274     1.007825032230
         H            4.166571915072    -1.155608308463    -0.358822611274     1.007825032230
         H            3.076789915072    -2.181036308463     0.575230388726     1.007825032230
         H            3.532437915072    -0.050427308463     1.800629388726     1.007825032230
         H            1.841512915072    -0.162582308463     1.367851388726     1.007825032230
         H            2.719921915072     2.121615691537     0.867981388726     1.007825032230
         H            3.951088915072     1.422960691537    -0.184726611274     1.007825032230
         H            2.248872915072     1.310456691537    -0.624405611274     1.007825032230

  Charge       = 0
  Multiplicity = 1
  Basis Set: JUN-CC-PVTZ
    Blend: JUN-CC-PVTZ
  Basis Set: (JUN-CC-PVTZ AUX)
    Blend: JUN-CC-PVTZ-JKFIT

    Orbital Energies [Eh]
    ---------------------

    Doubly Occupied:

       1A    -11.215579     2A    -11.207858     3A    -11.207815
       4A     -1.054043     5A     -0.924838     6A     -0.799825
       7A     -0.624736     8A     -0.598265     9A     -0.549395
      10A     -0.530203    11A     -0.475536    12A     -0.474961
      13A     -0.467988

  @DF-RHF Final Energy:  -118.30807639808987

   => Energetics <=

    Nuclear Repulsion Energy =             82.8172427563989544
    One-Electron Energy =                -321.9885509078922610
    Two-Electron Energy =                 120.8632317534034257
    Total Energy =                       -118.3080763980898666

  Dipole Moment: [D]
     X:    -0.0207      Y:    -0.0071      Z:     0.0805     Total:     0.0834

    SAPT Results
  --------------------------------------------------------------------------------------------------------
    Electrostatics                  0.00785592 [mEh]       0.00492966 [kcal/mol]       0.02062571 [kJ/mol]
      Elst10,r                      0.00785592 [mEh]       0.00492966 [kcal/mol]       0.02062571 [kJ/mol]

    Exchange                        0.00302310 [mEh]       0.00189702 [kcal/mol]       0.00793714 [kJ/mol]
      Exch10                        0.00302310 [mEh]       0.00189702 [kcal/mol]       0.00793714 [kJ/mol]
      Exch10(S^2)                   0.00302310 [mEh]       0.00189702 [kcal/mol]       0.00793714 [kJ/mol]

    Induction                      -0.00046278 [mEh]      -0.00029040 [kcal/mol]      -0.00121503 [kJ/mol]
      Ind20,r                      -0.00043748 [mEh]      -0.00027452 [kcal/mol]      -0.00114860 [kJ/mol]
      Exch-Ind20,r                  0.00016188 [mEh]       0.00010158 [kcal/mol]       0.00042502 [kJ/mol]
      delta HF,r (2)               -0.00018718 [mEh]      -0.00011746 [kcal/mol]      -0.00049144 [kJ/mol]

    Dispersion                     -0.36164146 [mEh]      -0.22693344 [kcal/mol]      -0.94948952 [kJ/mol]
      Disp20                       -0.36219221 [mEh]      -0.22727904 [kcal/mol]      -0.95093551 [kJ/mol]
      Exch-Disp20                   0.00055075 [mEh]       0.00034560 [kcal/mol]       0.00144599 [kJ/mol]
      Disp20 (SS)                  -0.18109610 [mEh]      -0.11363952 [kcal/mol]      -0.47546776 [kJ/mol]
      Disp20 (OS)                  -0.18109610 [mEh]      -0.11363952 [kcal/mol]      -0.47546776 [kJ/mol]
      Exch-Disp20 (SS)              0.00041423 [mEh]       0.00025993 [kcal/mol]       0.00108756 [kJ/mol]
      Exch-Disp20 (OS)              0.00013652 [mEh]       0.00008567 [kcal/mol]       0.00035843 [kJ/mol]

  Total HF                          0.01041624 [mEh]       0.00653629 [kcal/mol]       0.02734783 [kJ/mol]
  Total SAPT0                      -0.35122522 [mEh]      -0.22039715 [kcal/mol]      -0.92214169 [kJ/mol]

  Special recipe for scaled SAPT0 (see Manual):
    Electrostatics sSAPT0           0.00785592 [mEh]       0.00492966 [kcal/mol]       0.02062571 [kJ/mol]
    Exchange sSAPT0                 0.00302310 [mEh]       0.00189702 [kcal/mol]       0.00793714 [kJ/mol]
    Induction sSAPT0               -0.00046278 [mEh]      -0.00029040 [kcal/mol]      -0.00121503 [kJ/mol]
    Dispersion sSAPT0              -0.36164146 [mEh]      -0.22693344 [kcal/mol]      -0.94948952 [kJ/mol]
  Total sSAPT0                     -0.35122522 [mEh]      -0.22039715 [kcal/mol]      -0.92214169 [kJ/mol]
  --------------------------------------------------------------------------------------------------------

*** Psi4 exiting successfully. Buy a developer a beer!
