                               Psi4 1.3.2 release

  ==> Input File <==

--------------------------------------------------------------------------
# Any line starting with the # character is a comment line
#! Sample  computation

memory 22 gb

molecule Dimer {

0 1
 C                 -2.44456628   -1.23362057    0.19444301
 C                 -2.13358828   -0.05066257   -0.71411999
 C                 -2.23454328    1.27857243    0.02356001
 H                 -1.75489228   -1.26493957    1.03940901
 H                 -3.45575328   -1.15606657    0.59658101
 H                 -2.36587628   -2.18169457   -0.33712399
 H                 -2.82085928   -0.05105057   -1.56271899
 H                 -1.13006728   -0.16347457   -1.12950199
 H                 -2.00816228    2.12089843   -0.62991599
 H                 -3.23979028    1.42249843    0.42242901
 H                 -1.53773128    1.30969243    0.86264201
--
0 1
 C                  2.44426728   -1.23378243   -0.19444701
 C                  2.13373128   -0.05074143    0.71415999
 C                  2.23471828    1.27844857   -0.02359301
 H                  1.75435328   -1.26505243   -1.03922501
 H                  3.45535328   -1.15639143   -0.59686901
 H                  2.36557128   -2.18181943    0.33718399
 H                  2.82121928   -0.05121043    1.56258299
 H                  1.13029428   -0.16336543    1.12980499
 H                  2.00870328    2.12083257    0.62993499
 H                  3.23987028    1.42217757   -0.42277301
 H                  1.53765428    1.30967357   -0.86245201

units angstrom
no_reorient
symmetry c1
}

set globals{
  basis jun-cc-pvtz
}

energy('sapt0')
--------------------------------------------------------------------------

  //              Dimer HF             //
    Molecular point group: c1
  Charge       = 0
  Multiplicity = 1
  Basis Set: JUN-CC-PVTZ
    Blend: JUN-CC-PVTZ
  Basis Set: (JUN-CC-PVTZ AUX)
    Blend: JUN-CC-PVTZ-JKFIT
  @DF-RHF Final Energy:  -236.61585146984152
    Total Energy =                       -236.6158514698415161
  //            Monomer A HF           //
    Molecular point group: c1
  Multiplicity = 1
  Basis Set: JUN-CC-PVTZ
    Blend: JUN-CC-PVTZ
  Basis Set: (JUN-CC-PVTZ AUX)
    Blend: JUN-CC-PVTZ-JKFIT
  @DF-RHF Final Energy:  -118.30808680534400
    Total Energy =                       -118.3080868053440042
  //            Monomer B HF           //
    Molecular point group: c1

    Geometry (in Angstrom), charge = 0, multiplicity = 1:

       Center              X                  Y                   Z               Mass
    ------------   -----------------  -----------------  -----------------  -----------------
      Gh(C)          -2.444567574928    -1.232824308463     0.194442738726    12.000000000000
      Gh(C)          -2.133589574928    -0.049866308463    -0.714120261274    12.000000000000
      Gh(C)          -2.234544574928     1.279368691537     0.023559738726    12.000000000000
      Gh(H)          -1.754893574928    -1.264143308463     1.039408738726     1.007825032230
      Gh(H)          -3.455754574928    -1.155270308463     0.596580738726     1.007825032230
      Gh(H)          -2.365877574928    -2.180898308463    -0.337124261274     1.007825032230
      Gh(H)          -2.820860574928    -0.050254308463    -1.562719261274     1.007825032230
      Gh(H)          -1.130068574928    -0.162678308463    -1.129502261274     1.007825032230
      Gh(H)          -2.008163574928     2.121694691537    -0.629916261274     1.007825032230
      Gh(H)          -3.239791574928     1.423294691537     0.422428738726     1.007825032230
      Gh(H)          -1.537732574928     1.310488691537     0.862641738726     1.007825032230
         C            2.444265985072    -1.232986168463    -0.194447281274    12.000000000000
         C            2.133729985072    -0.049945168463     0.714159718726    12.000000000000
         C            2.234716985072     1.279244831537    -0.023593281274    12.000000000000
         H            1.754351985072    -1.264256168463    -1.039225281274     1.007825032230
         H            3.455351985072    -1.155595168463    -0.596869281274     1.007825032230
         H            2.365569985072    -2.181023168463     0.337183718726     1.007825032230
         H            2.821217985072    -0.050414168463     1.562582718726     1.007825032230
         H            1.130292985072    -0.162569168463     1.129804718726     1.007825032230
         H            2.008701985072     2.121628831537     0.629934718726     1.007825032230
         H            3.239868985072     1.422973831537    -0.422773281274     1.007825032230
         H            1.537652985072     1.310469831537    -0.862452281274     1.007825032230

  Charge       = 0
  Multiplicity = 1
  Basis Set: JUN-CC-PVTZ
    Blend: JUN-CC-PVTZ
  Basis Set: (JUN-CC-PVTZ AUX)
    Blend: JUN-CC-PVTZ-JKFIT

    Orbital Energies [Eh]
    ---------------------

    Doubly Occupied:

       1A    -11.215581     2A    -11.207860     3A    -11.207815
       4A     -1.054044     5A     -0.924838     6A     -0.799825
       7A     -0.624737     8A     -0.598264     9A     -0.549394
      10A     -0.530204    11A     -0.475537    12A     -0.474961
      13A     -0.467988

  @DF-RHF Final Energy:  -118.30808682078060

   => Energetics <=

    Nuclear Repulsion Energy =             82.8172427563989686
    One-Electron Energy =                -321.9885628361558929
    Two-Electron Energy =                 120.8632332589763223
    Total Energy =                       -118.3080868207806020

  Dipole Moment: [D]
     X:    -0.0205      Y:    -0.0071      Z:     0.0807     Total:     0.0836

    SAPT Results
  --------------------------------------------------------------------------------------------------------
    Electrostatics                 -0.10030143 [mEh]      -0.06294010 [kcal/mol]      -0.26334138 [kJ/mol]
      Elst10,r                     -0.10030143 [mEh]      -0.06294010 [kcal/mol]      -0.26334138 [kJ/mol]

    Exchange                        0.46331749 [mEh]       0.29073612 [kcal/mol]       1.21643991 [kJ/mol]
      Exch10                        0.46331749 [mEh]       0.29073612 [kcal/mol]       1.21643991 [kJ/mol]
      Exch10(S^2)                   0.46322699 [mEh]       0.29067932 [kcal/mol]       1.21620229 [kJ/mol]

    Induction                      -0.04085978 [mEh]      -0.02563990 [kcal/mol]      -0.10727733 [kJ/mol]
      Ind20,r                      -0.05297504 [mEh]      -0.03324234 [kcal/mol]      -0.13908595 [kJ/mol]
      Exch-Ind20,r                  0.04259415 [mEh]       0.02672823 [kcal/mol]       0.11183093 [kJ/mol]
      delta HF,r (2)               -0.03047889 [mEh]      -0.01912579 [kcal/mol]      -0.08002232 [kJ/mol]

    Dispersion                     -2.11356639 [mEh]      -1.32628293 [kcal/mol]      -5.54916780 [kJ/mol]
      Disp20                       -2.17478460 [mEh]      -1.36469794 [kcal/mol]      -5.70989618 [kJ/mol]
      Exch-Disp20                   0.06121821 [mEh]       0.03841500 [kcal/mol]       0.16072838 [kJ/mol]
      Disp20 (SS)                  -1.08739230 [mEh]      -0.68234897 [kcal/mol]      -2.85494809 [kJ/mol]
      Disp20 (OS)                  -1.08739230 [mEh]      -0.68234897 [kcal/mol]      -2.85494809 [kJ/mol]
      Exch-Disp20 (SS)              0.04178864 [mEh]       0.02622277 [kcal/mol]       0.10971607 [kJ/mol]
      Exch-Disp20 (OS)              0.01942956 [mEh]       0.01219224 [kcal/mol]       0.05101231 [kJ/mol]

  Total HF                          0.32215628 [mEh]       0.20215612 [kcal/mol]       0.84582120 [kJ/mol]
  Total SAPT0                      -1.79141011 [mEh]      -1.12412681 [kcal/mol]      -4.70334659 [kJ/mol]

  Special recipe for scaled SAPT0 (see Manual):
    Electrostatics sSAPT0          -0.10030143 [mEh]      -0.06294010 [kcal/mol]      -0.26334138 [kJ/mol]
    Exchange sSAPT0                 0.46331749 [mEh]       0.29073612 [kcal/mol]       1.21643991 [kJ/mol]
    Induction sSAPT0               -0.04083481 [mEh]      -0.02562423 [kcal/mol]      -0.10721177 [kJ/mol]
    Dispersion sSAPT0              -2.11353050 [mEh]      -1.32626041 [kcal/mol]      -5.54907357 [kJ/mol]
  Total sSAPT0                     -1.79134925 [mEh]      -1.12408862 [kcal/mol]      -4.70318680 [kJ/mol]
  --------------------------------------------------------------------------------------------------------

*** Psi4 exiting successfully. Buy a developer a beer!
