                               Psi4 1.3.2 release

  ==> Input File <==

--------------------------------------------------------------------------
# Any line starting with the # character is a comment line
#! Sample  computation

memory 22 gb

molecule Dimer {

0 1
 C                 -1.73603519    1.76536291   -0.34522292
 C                 -2.63329219    0.91567191    0.16181808
 C                 -2.74527819   -0.52341209   -0.22833592
 H                 -1.70151719    2.79940591   -0.03115192
 H                 -1.01673019    1.43743691   -1.08510292
 H                 -3.33453019    1.27962091    0.90599408
 H                 -3.73304019   -0.73874009   -0.63897992
 H                 -1.99469219   -0.78433009   -0.97302892
 H                 -2.61165219   -1.17479309    0.63733808
--
0 1
 C                  1.73619919   -1.76537991    0.34574992
 C                  2.63285319   -0.91559691   -0.16220308
 C                  2.74547219    0.52337009    0.22817892
 H                  1.70120319   -2.79931791    0.03138892
 H                  1.01788719   -1.43765991    1.08668492
 H                  3.33308119   -1.27938891   -0.90741008
 H                  2.61072519    1.17499909   -0.63713908
 H                  1.99593719    0.78416909    0.97397392
 H                  3.73381619    0.73850209    0.63752492

units angstrom
no_reorient
symmetry c1
}

set globals{
  basis jun-cc-pvtz
}

energy('sapt0')
--------------------------------------------------------------------------

  //              Dimer HF             //
    Molecular point group: c1
  Charge       = 0
  Multiplicity = 1
  Basis Set: JUN-CC-PVTZ
    Blend: JUN-CC-PVTZ
  Basis Set: (JUN-CC-PVTZ AUX)
    Blend: JUN-CC-PVTZ-JKFIT
  @DF-RHF Final Energy:  -234.23381667042202
    Total Energy =                       -234.2338166704220157
  //            Monomer A HF           //
    Molecular point group: c1
  Multiplicity = 1
  Basis Set: JUN-CC-PVTZ
    Blend: JUN-CC-PVTZ
  Basis Set: (JUN-CC-PVTZ AUX)
    Blend: JUN-CC-PVTZ-JKFIT
  @DF-RHF Final Energy:  -117.11685898676930
    Total Energy =                       -117.1168589867693015
  //            Monomer B HF           //
    Molecular point group: c1

    Geometry (in Angstrom), charge = 0, multiplicity = 1:

       Center              X                  Y                   Z               Mass
    ------------   -----------------  -----------------  -----------------  -----------------
      Gh(C)          -1.736029479938     1.765361777352    -0.345221882111    12.000000000000
      Gh(C)          -2.633286479938     0.915670777352     0.161819117889    12.000000000000
      Gh(C)          -2.745272479938    -0.523413222648    -0.228334882111    12.000000000000
      Gh(H)          -1.701511479938     2.799404777352    -0.031150882111     1.007825032230
      Gh(H)          -1.016724479938     1.437435777352    -1.085101882111     1.007825032230
      Gh(H)          -3.334524479938     1.279619777352     0.905995117889     1.007825032230
      Gh(H)          -3.733034479938    -0.738741222648    -0.638978882111     1.007825032230
      Gh(H)          -1.994686479938    -0.784331222648    -0.973027882111     1.007825032230
      Gh(H)          -2.611646479938    -1.174794222648     0.637339117889     1.007825032230
         C            1.736204900062    -1.765381042648     0.345750957889    12.000000000000
         C            2.632858900062    -0.915598042648    -0.162202042111    12.000000000000
         C            2.745477900062     0.523368957352     0.228179957889    12.000000000000
         H            1.701208900062    -2.799319042648     0.031389957889     1.007825032230
         H            1.017892900062    -1.437661042648     1.086685957889     1.007825032230
         H            3.333086900062    -1.279390042648    -0.907409042111     1.007825032230
         H            2.610730900062     1.174997957352    -0.637138042111     1.007825032230
         H            1.995942900062     0.784167957352     0.973974957889     1.007825032230
         H            3.733821900062     0.738500957352     0.637525957889     1.007825032230

  Charge       = 0
  Multiplicity = 1
  Basis Set: JUN-CC-PVTZ
    Blend: JUN-CC-PVTZ
  Basis Set: (JUN-CC-PVTZ AUX)
    Blend: JUN-CC-PVTZ-JKFIT

    Orbital Energies [Eh]
    ---------------------

    Doubly Occupied:

       1A    -11.234394     2A    -11.220820     3A    -11.217537
       4A     -1.064937     5A     -0.932800     6A     -0.758098
       7A     -0.640071     8A     -0.582627     9A     -0.568360
      10A     -0.523410    11A     -0.493157    12A     -0.357998

  @DF-RHF Final Energy:  -117.11685919273020

   => Energetics <=

    Nuclear Repulsion Energy =             70.8713837239297959
    One-Electron Energy =                -296.7880699056794356
    Two-Electron Energy =                 108.7998269890194365
    Total Energy =                       -117.1168591927302032

  Dipole Moment: [D]
     X:     0.2100      Y:     0.3616      Z:    -0.0649     Total:     0.4232

    SAPT Results
  --------------------------------------------------------------------------------------------------------
    Electrostatics                 -0.24754241 [mEh]      -0.15533521 [kcal/mol]      -0.64992251 [kJ/mol]
      Elst10,r                     -0.24754241 [mEh]      -0.15533521 [kcal/mol]      -0.64992251 [kJ/mol]

    Exchange                        0.18086608 [mEh]       0.11349518 [kcal/mol]       0.47486382 [kJ/mol]
      Exch10                        0.18086608 [mEh]       0.11349518 [kcal/mol]       0.47486382 [kJ/mol]
      Exch10(S^2)                   0.18084677 [mEh]       0.11348306 [kcal/mol]       0.47481313 [kJ/mol]

    Induction                      -0.03181459 [mEh]      -0.01996396 [kcal/mol]      -0.08352920 [kJ/mol]
      Ind20,r                      -0.05243178 [mEh]      -0.03290144 [kcal/mol]      -0.13765962 [kJ/mol]
      Exch-Ind20,r                  0.03289525 [mEh]       0.02064208 [kcal/mol]       0.08636647 [kJ/mol]
      delta HF,r (2)               -0.01227806 [mEh]      -0.00770460 [kcal/mol]      -0.03223605 [kJ/mol]

    Dispersion                     -1.18187145 [mEh]      -0.74163553 [kcal/mol]      -3.10300306 [kJ/mol]
      Disp20                       -1.21202436 [mEh]      -0.76055677 [kcal/mol]      -3.18216952 [kJ/mol]
      Exch-Disp20                   0.03015291 [mEh]       0.01892124 [kcal/mol]       0.07916645 [kJ/mol]
      Disp20 (SS)                  -0.60601218 [mEh]      -0.38027838 [kcal/mol]      -1.59108476 [kJ/mol]
      Disp20 (OS)                  -0.60601218 [mEh]      -0.38027838 [kcal/mol]      -1.59108476 [kJ/mol]
      Exch-Disp20 (SS)              0.02088248 [mEh]       0.01310396 [kcal/mol]       0.05482695 [kJ/mol]
      Exch-Disp20 (OS)              0.00927043 [mEh]       0.00581728 [kcal/mol]       0.02433950 [kJ/mol]

  Total HF                         -0.09849092 [mEh]      -0.06180399 [kcal/mol]      -0.25858788 [kJ/mol]
  Total SAPT0                      -1.28036237 [mEh]      -0.80343952 [kcal/mol]      -3.36159094 [kJ/mol]

  Special recipe for scaled SAPT0 (see Manual):
    Electrostatics sSAPT0          -0.24754241 [mEh]      -0.15533521 [kcal/mol]      -0.64992251 [kJ/mol]
    Exchange sSAPT0                 0.18086608 [mEh]       0.11349518 [kcal/mol]       0.47486382 [kJ/mol]
    Induction sSAPT0               -0.03180405 [mEh]      -0.01995734 [kcal/mol]      -0.08350153 [kJ/mol]
    Dispersion sSAPT0              -1.18186179 [mEh]      -0.74162947 [kcal/mol]      -3.10297770 [kJ/mol]
  Total sSAPT0                     -1.28034217 [mEh]      -0.80342684 [kcal/mol]      -3.36153792 [kJ/mol]
  --------------------------------------------------------------------------------------------------------

*** Psi4 exiting successfully. Buy a developer a beer!
