                               Psi4 1.3.2 release

  ==> Input File <==

--------------------------------------------------------------------------
# Any line starting with the # character is a comment line
#! Sample  computation

memory 22 gb

molecule Dimer {

0 1
 C                 -2.68163959   -1.23361619    0.11509412
 C                 -2.37066159   -0.05065819   -0.79346888
 C                 -2.47161659    1.27857681   -0.05578888
 H                 -1.99196559   -1.26493519    0.96006012
 H                 -3.69282659   -1.15606219    0.51723212
 H                 -2.60294959   -2.18169019   -0.41647288
 H                 -3.05793259   -0.05104619   -1.64206788
 H                 -1.36714059   -0.16347019   -1.20885088
 H                 -2.24523559    2.12090281   -0.70926488
 H                 -3.47686359    1.42250281    0.34308012
 H                 -1.77480459    1.30969681    0.78329312
--
0 1
 C                  2.68134059   -1.23378681   -0.11509812
 C                  2.37080459   -0.05074581    0.79350888
 C                  2.47179159    1.27844419    0.05575588
 H                  1.99142659   -1.26505681   -0.95987612
 H                  3.69242659   -1.15639581   -0.51752012
 H                  2.60264459   -2.18182381    0.41653288
 H                  3.05829259   -0.05121481    1.64193188
 H                  1.36736759   -0.16336981    1.20915388
 H                  2.24577659    2.12082819    0.70928388
 H                  3.47694359    1.42217319   -0.34342412
 H                  1.77472759    1.30966919   -0.78310312

units angstrom
no_reorient
symmetry c1
}

set globals{
  basis jun-cc-pvtz
}

energy('sapt0')
--------------------------------------------------------------------------

  //              Dimer HF             //
    Molecular point group: c1
  Charge       = 0
  Multiplicity = 1
  Basis Set: JUN-CC-PVTZ
    Blend: JUN-CC-PVTZ
  Basis Set: (JUN-CC-PVTZ AUX)
    Blend: JUN-CC-PVTZ-JKFIT
  @DF-RHF Final Energy:  -236.61608476263024
    Total Energy =                       -236.6160847626302370
  //            Monomer A HF           //
    Molecular point group: c1
  Multiplicity = 1
  Basis Set: JUN-CC-PVTZ
    Blend: JUN-CC-PVTZ
  Basis Set: (JUN-CC-PVTZ AUX)
    Blend: JUN-CC-PVTZ-JKFIT
  @DF-RHF Final Energy:  -118.30808110153679
    Total Energy =                       -118.3080811015367857
  //            Monomer B HF           //
    Molecular point group: c1

    Geometry (in Angstrom), charge = 0, multiplicity = 1:

       Center              X                  Y                   Z               Mass
    ------------   -----------------  -----------------  -----------------  -----------------
      Gh(C)          -2.681640884928    -1.232819928463     0.115093848726    12.000000000000
      Gh(C)          -2.370662884928    -0.049861928463    -0.793469151274    12.000000000000
      Gh(C)          -2.471617884928     1.279373071537    -0.055789151274    12.000000000000
      Gh(H)          -1.991966884928    -1.264138928463     0.960059848726     1.007825032230
      Gh(H)          -3.692827884928    -1.155265928463     0.517231848726     1.007825032230
      Gh(H)          -2.602950884928    -2.180893928463    -0.416473151274     1.007825032230
      Gh(H)          -3.057933884928    -0.050249928463    -1.642068151274     1.007825032230
      Gh(H)          -1.367141884928    -0.162673928463    -1.208851151274     1.007825032230
      Gh(H)          -2.245236884928     2.121699071537    -0.709265151274     1.007825032230
      Gh(H)          -3.476864884928     1.423299071537     0.343079848726     1.007825032230
      Gh(H)          -1.774805884928     1.310493071537     0.783292848726     1.007825032230
         C            2.681339295072    -1.232990548463    -0.115098391274    12.000000000000
         C            2.370803295072    -0.049949548463     0.793508608726    12.000000000000
         C            2.471790295072     1.279240451537     0.055755608726    12.000000000000
         H            1.991425295072    -1.264260548463    -0.959876391274     1.007825032230
         H            3.692425295072    -1.155599548463    -0.517520391274     1.007825032230
         H            2.602643295072    -2.181027548463     0.416532608726     1.007825032230
         H            3.058291295072    -0.050418548463     1.641931608726     1.007825032230
         H            1.367366295072    -0.162573548463     1.209153608726     1.007825032230
         H            2.245775295072     2.121624451537     0.709283608726     1.007825032230
         H            3.476942295072     1.422969451537    -0.343424391274     1.007825032230
         H            1.774726295072     1.310465451537    -0.783103391274     1.007825032230

  Charge       = 0
  Multiplicity = 1
  Basis Set: JUN-CC-PVTZ
    Blend: JUN-CC-PVTZ
  Basis Set: (JUN-CC-PVTZ AUX)
    Blend: JUN-CC-PVTZ-JKFIT

    Orbital Energies [Eh]
    ---------------------

    Doubly Occupied:

       1A    -11.215580     2A    -11.207859     3A    -11.207815
       4A     -1.054044     5A     -0.924838     6A     -0.799825
       7A     -0.624737     8A     -0.598265     9A     -0.549395
      10A     -0.530203    11A     -0.475537    12A     -0.474961
      13A     -0.467988

  @DF-RHF Final Energy:  -118.30808111768559

   => Energetics <=

    Nuclear Repulsion Energy =             82.8172427563989686
    One-Electron Energy =                -321.9885558570666717
    Two-Electron Energy =                 120.8632319829821142
    Total Energy =                       -118.3080811176855889

  Dipole Moment: [D]
     X:    -0.0207      Y:    -0.0071      Z:     0.0806     Total:     0.0835

    SAPT Results
  --------------------------------------------------------------------------------------------------------
    Electrostatics                 -0.00308933 [mEh]      -0.00193859 [kcal/mol]      -0.00811104 [kJ/mol]
      Elst10,r                     -0.00308933 [mEh]      -0.00193859 [kcal/mol]      -0.00811104 [kJ/mol]

    Exchange                        0.08899735 [mEh]       0.05584668 [kcal/mol]       0.23366252 [kJ/mol]
      Exch10                        0.08899735 [mEh]       0.05584668 [kcal/mol]       0.23366252 [kJ/mol]
      Exch10(S^2)                   0.08899403 [mEh]       0.05584460 [kcal/mol]       0.23365380 [kJ/mol]

    Induction                      -0.00845143 [mEh]      -0.00530335 [kcal/mol]      -0.02218922 [kJ/mol]
      Ind20,r                      -0.00909588 [mEh]      -0.00570775 [kcal/mol]      -0.02388122 [kJ/mol]
      Exch-Ind20,r                  0.00664167 [mEh]       0.00416771 [kcal/mol]       0.01743771 [kJ/mol]
      delta HF,r (2)               -0.00599723 [mEh]      -0.00376332 [kcal/mol]      -0.01574572 [kJ/mol]

    Dispersion                     -1.10701742 [mEh]      -0.69466392 [kcal/mol]      -2.90647383 [kJ/mol]
      Disp20                       -1.12032323 [mEh]      -0.70301344 [kcal/mol]      -2.94140824 [kJ/mol]
      Exch-Disp20                   0.01330581 [mEh]       0.00834952 [kcal/mol]       0.03493441 [kJ/mol]
      Disp20 (SS)                  -0.56016162 [mEh]      -0.35150672 [kcal/mol]      -1.47070412 [kJ/mol]
      Disp20 (OS)                  -0.56016162 [mEh]      -0.35150672 [kcal/mol]      -1.47070412 [kJ/mol]
      Exch-Disp20 (SS)              0.00941348 [mEh]       0.00590705 [kcal/mol]       0.02471508 [kJ/mol]
      Exch-Disp20 (OS)              0.00389234 [mEh]       0.00244248 [kcal/mol]       0.01021933 [kJ/mol]

  Total HF                          0.07745659 [mEh]       0.04860475 [kcal/mol]       0.20336225 [kJ/mol]
  Total SAPT0                      -1.02956083 [mEh]      -0.64605917 [kcal/mol]      -2.70311158 [kJ/mol]

  Special recipe for scaled SAPT0 (see Manual):
    Electrostatics sSAPT0          -0.00308933 [mEh]      -0.00193859 [kcal/mol]      -0.00811104 [kJ/mol]
    Exchange sSAPT0                 0.08899735 [mEh]       0.05584668 [kcal/mol]       0.23366252 [kJ/mol]
    Induction sSAPT0               -0.00845069 [mEh]      -0.00530289 [kcal/mol]      -0.02218727 [kJ/mol]
    Dispersion sSAPT0              -1.10701593 [mEh]      -0.69466298 [kcal/mol]      -2.90646992 [kJ/mol]
  Total sSAPT0                     -1.02955859 [mEh]      -0.64605777 [kcal/mol]      -2.70310571 [kJ/mol]
  --------------------------------------------------------------------------------------------------------

*** Psi4 exiting successfully. Buy a developer a beer!
