                               Psi4 1.3.2 release

  ==> Input File <==

--------------------------------------------------------------------------
# Any line starting with the # character is a comment line
#! Sample  computation

memory 22 gb

molecule Dimer {

0 1
 C                 -1.49627305   -1.23363809    0.51183856
 C                 -1.18529505   -0.05068009   -0.39672444
 C                 -1.28625005    1.27855491    0.34095556
 H                 -0.80659905   -1.26495709    1.35680456
 H                 -2.50746005   -1.15608409    0.91397656
 H                 -1.41758305   -2.18171209   -0.01972844
 H                 -1.87256605   -0.05106809   -1.24532344
 H                 -0.18177405   -0.16349209   -0.81210644
 H                 -1.05986905    2.12088091   -0.31252044
 H                 -2.29149705    1.42248091    0.73982456
 H                 -0.58943805    1.30967491    1.18003756
--
0 1
 C                  1.49597405   -1.23376491   -0.51184256
 C                  1.18543805   -0.05072391    0.39676444
 C                  1.28642505    1.27846609   -0.34098856
 H                  0.80606005   -1.26503491   -1.35662056
 H                  2.50706005   -1.15637391   -0.91426456
 H                  1.41727805   -2.18180191    0.01978844
 H                  1.87292605   -0.05119291    1.24518744
 H                  0.18200105   -0.16334791    0.81240944
 H                  1.06041005    2.12085009    0.31253944
 H                  2.29157705    1.42219509   -0.74016856
 H                  0.58936105    1.30969109   -1.17984756

units angstrom
no_reorient
symmetry c1
}

set globals{
  basis jun-cc-pvtz
}

energy('sapt0')
--------------------------------------------------------------------------

  //              Dimer HF             //
    Molecular point group: c1
  Charge       = 0
  Multiplicity = 1
  Basis Set: JUN-CC-PVTZ
    Blend: JUN-CC-PVTZ
  Basis Set: (JUN-CC-PVTZ AUX)
    Blend: JUN-CC-PVTZ-JKFIT
  @DF-RHF Final Energy:  -236.51080163999296
    Total Energy =                       -236.5108016399929625
  //            Monomer A HF           //
    Molecular point group: c1
  Multiplicity = 1
  Basis Set: JUN-CC-PVTZ
    Blend: JUN-CC-PVTZ
  Basis Set: (JUN-CC-PVTZ AUX)
    Blend: JUN-CC-PVTZ-JKFIT
  @DF-RHF Final Energy:  -118.30819012404226
    Total Energy =                       -118.3081901240422553
  //            Monomer B HF           //
    Molecular point group: c1

    Geometry (in Angstrom), charge = 0, multiplicity = 1:

       Center              X                  Y                   Z               Mass
    ------------   -----------------  -----------------  -----------------  -----------------
      Gh(C)          -1.496274344928    -1.232841828463     0.511838288726    12.000000000000
      Gh(C)          -1.185296344928    -0.049883828463    -0.396724711274    12.000000000000
      Gh(C)          -1.286251344928     1.279351171537     0.340955288726    12.000000000000
      Gh(H)          -0.806600344928    -1.264160828463     1.356804288726     1.007825032230
      Gh(H)          -2.507461344928    -1.155287828463     0.913976288726     1.007825032230
      Gh(H)          -1.417584344928    -2.180915828463    -0.019728711274     1.007825032230
      Gh(H)          -1.872567344928    -0.050271828463    -1.245323711274     1.007825032230
      Gh(H)          -0.181775344928    -0.162695828463    -0.812106711274     1.007825032230
      Gh(H)          -1.059870344928     2.121677171537    -0.312520711274     1.007825032230
      Gh(H)          -2.291498344928     1.423277171537     0.739824288726     1.007825032230
      Gh(H)          -0.589439344928     1.310471171537     1.180037288726     1.007825032230
         C            1.495972755072    -1.232968648463    -0.511842831274    12.000000000000
         C            1.185436755072    -0.049927648463     0.396764168726    12.000000000000
         C            1.286423755072     1.279262351537    -0.340988831274    12.000000000000
         H            0.806058755072    -1.264238648463    -1.356620831274     1.007825032230
         H            2.507058755072    -1.155577648463    -0.914264831274     1.007825032230
         H            1.417276755072    -2.181005648463     0.019788168726     1.007825032230
         H            1.872924755072    -0.050396648463     1.245187168726     1.007825032230
         H            0.181999755072    -0.162551648463     0.812409168726     1.007825032230
         H            1.060408755072     2.121646351537     0.312539168726     1.007825032230
         H            2.291575755072     1.422991351537    -0.740168831274     1.007825032230
         H            0.589359755072     1.310487351537    -1.179847831274     1.007825032230

  Charge       = 0
  Multiplicity = 1
  Basis Set: JUN-CC-PVTZ
    Blend: JUN-CC-PVTZ
  Basis Set: (JUN-CC-PVTZ AUX)
    Blend: JUN-CC-PVTZ-JKFIT

    Orbital Energies [Eh]
    ---------------------

    Doubly Occupied:

       1A    -11.215589     2A    -11.207870     3A    -11.207821
       4A     -1.054037     5A     -0.924832     6A     -0.799824
       7A     -0.624738     8A     -0.598258     9A     -0.549390
      10A     -0.530201    11A     -0.475536    12A     -0.474957
      13A     -0.467989

  @DF-RHF Final Energy:  -118.30819016182403

   => Energetics <=

    Nuclear Repulsion Energy =             82.8172427563989544
    One-Electron Energy =                -321.9887786072180234
    Two-Electron Energy =                 120.8633456889950253
    Total Energy =                       -118.3081901618240295

  Dipole Moment: [D]
     X:    -0.0207      Y:    -0.0074      Z:     0.0812     Total:     0.0842

    SAPT Results
  --------------------------------------------------------------------------------------------------------
    Electrostatics                -61.66174147 [mEh]     -38.69332694 [kcal/mol]    -161.89287992 [kJ/mol]
      Elst10,r                    -61.66174147 [mEh]     -38.69332694 [kcal/mol]    -161.89287992 [kJ/mol]

    Exchange                      181.23728770 [mEh]     113.72811503 [kcal/mol]     475.83843330 [kJ/mol]
      Exch10                      181.23728770 [mEh]     113.72811503 [kcal/mol]     475.83843330 [kJ/mol]
      Exch10(S^2)                 171.17387397 [mEh]     107.41322758 [kcal/mol]     449.41694420 [kJ/mol]

    Induction                     -13.99690036 [mEh]      -8.78318758 [kcal/mol]     -36.74885683 [kJ/mol]
      Ind20,r                     -59.81069027 [mEh]     -37.53177478 [kcal/mol]    -157.03294567 [kJ/mol]
      Exch-Ind20,r                 47.67381244 [mEh]      29.91576896 [kcal/mol]     125.16757731 [kJ/mol]
      delta HF,r (2)               -1.86002253 [mEh]      -1.16718176 [kcal/mol]      -4.88348847 [kJ/mol]

    Dispersion                    -47.16069768 [mEh]     -29.59378458 [kcal/mol]    -123.82039470 [kJ/mol]
      Disp20                      -58.78090706 [mEh]     -36.88557606 [kcal/mol]    -154.32925023 [kJ/mol]
      Exch-Disp20                  11.62020938 [mEh]       7.29179147 [kcal/mol]      30.50885553 [kJ/mol]
      Disp20 (SS)                 -29.39045353 [mEh]     -18.44278803 [kcal/mol]     -77.16462511 [kJ/mol]
      Disp20 (OS)                 -29.39045353 [mEh]     -18.44278803 [kcal/mol]     -77.16462511 [kJ/mol]
      Exch-Disp20 (SS)              7.46012994 [mEh]       4.68130221 [kcal/mol]      19.58656847 [kJ/mol]
      Exch-Disp20 (OS)              4.16007944 [mEh]       2.61048926 [kcal/mol]      10.92228707 [kJ/mol]

  Total HF                        105.57864587 [mEh]      66.25160051 [kcal/mol]     277.19669655 [kJ/mol]
  Total SAPT0                      58.41794820 [mEh]      36.65781593 [kcal/mol]     153.37630186 [kJ/mol]

  Special recipe for scaled SAPT0 (see Manual):
    Electrostatics sSAPT0         -61.66174147 [mEh]     -38.69332694 [kcal/mol]    -161.89287992 [kJ/mol]
    Exchange sSAPT0               181.23728770 [mEh]     113.72811503 [kcal/mol]     475.83843330 [kJ/mol]
    Induction sSAPT0               -5.08456794 [mEh]      -3.19061455 [kcal/mol]     -13.34953130 [kJ/mol]
    Dispersion sSAPT0             -44.98836944 [mEh]     -28.23062804 [kcal/mol]    -118.11694770 [kJ/mol]
  Total sSAPT0                     69.50260885 [mEh]      43.61354550 [kcal/mol]     182.47907438 [kJ/mol]
  --------------------------------------------------------------------------------------------------------

*** Psi4 exiting successfully. Buy a developer a beer!
