                               Psi4 1.3.2 release

  ==> Input File <==

--------------------------------------------------------------------------
# Any line starting with the # character is a comment line
#! Sample  computation

memory 22 gb

molecule Dimer {

0 1
 C                 -1.38881175    1.41228863   -0.27612564
 C                 -2.28606875    0.56259763    0.23091536
 C                 -2.39805475   -0.87648637   -0.15923864
 H                 -1.35429375    2.44633163    0.03794536
 H                 -0.66950675    1.08436263   -1.01600564
 H                 -2.98730675    0.92654663    0.97509136
 H                 -3.38581675   -1.09181437   -0.56988264
 H                 -1.64746875   -1.13740437   -0.90393164
 H                 -2.26442875   -1.52786737    0.70643536
--
0 1
 C                  1.38897575   -1.41230563    0.27665264
 C                  2.28562975   -0.56252263   -0.23130036
 C                  2.39824875    0.87644437    0.15908164
 H                  1.35397975   -2.44624363   -0.03770836
 H                  0.67066375   -1.08458563    1.01758764
 H                  2.98585775   -0.92631463   -0.97650736
 H                  2.26350175    1.52807337   -0.70623636
 H                  1.64871375    1.13724337    0.90487664
 H                  3.38659275    1.09157637    0.56842764

units angstrom
no_reorient
symmetry c1
}

set globals{
  basis jun-cc-pvtz
}

energy('sapt0')
--------------------------------------------------------------------------

  //              Dimer HF             //
    Molecular point group: c1
  Charge       = 0
  Multiplicity = 1
  Basis Set: JUN-CC-PVTZ
    Blend: JUN-CC-PVTZ
  Basis Set: (JUN-CC-PVTZ AUX)
    Blend: JUN-CC-PVTZ-JKFIT
  @DF-RHF Final Energy:  -234.23268418780717
    Total Energy =                       -234.2326841878071946
  //            Monomer A HF           //
    Molecular point group: c1
  Multiplicity = 1
  Basis Set: JUN-CC-PVTZ
    Blend: JUN-CC-PVTZ
  Basis Set: (JUN-CC-PVTZ AUX)
    Blend: JUN-CC-PVTZ-JKFIT
  @DF-RHF Final Energy:  -117.11687556262297
    Total Energy =                       -117.1168755626229654
  //            Monomer B HF           //
    Molecular point group: c1

    Geometry (in Angstrom), charge = 0, multiplicity = 1:

       Center              X                  Y                   Z               Mass
    ------------   -----------------  -----------------  -----------------  -----------------
      Gh(C)          -1.388806039938     1.412287497352    -0.276124602111    12.000000000000
      Gh(C)          -2.286063039938     0.562596497352     0.230916397889    12.000000000000
      Gh(C)          -2.398049039938    -0.876487502648    -0.159237602111    12.000000000000
      Gh(H)          -1.354288039938     2.446330497352     0.037946397889     1.007825032230
      Gh(H)          -0.669501039938     1.084361497352    -1.016004602111     1.007825032230
      Gh(H)          -2.987301039938     0.926545497352     0.975092397889     1.007825032230
      Gh(H)          -3.385811039938    -1.091815502648    -0.569881602111     1.007825032230
      Gh(H)          -1.647463039938    -1.137405502648    -0.903930602111     1.007825032230
      Gh(H)          -2.264423039938    -1.527868502648     0.706436397889     1.007825032230
         C            1.388981460062    -1.412306762648     0.276653677889    12.000000000000
         C            2.285635460062    -0.562523762648    -0.231299322111    12.000000000000
         C            2.398254460062     0.876443237352     0.159082677889    12.000000000000
         H            1.353985460062    -2.446244762648    -0.037707322111     1.007825032230
         H            0.670669460062    -1.084586762648     1.017588677889     1.007825032230
         H            2.985863460062    -0.926315762648    -0.976506322111     1.007825032230
         H            2.263507460062     1.528072237352    -0.706235322111     1.007825032230
         H            1.648719460062     1.137242237352     0.904877677889     1.007825032230
         H            3.386598460062     1.091575237352     0.568428677889     1.007825032230

  Charge       = 0
  Multiplicity = 1
  Basis Set: JUN-CC-PVTZ
    Blend: JUN-CC-PVTZ
  Basis Set: (JUN-CC-PVTZ AUX)
    Blend: JUN-CC-PVTZ-JKFIT

    Orbital Energies [Eh]
    ---------------------

    Doubly Occupied:

       1A    -11.234389     2A    -11.220818     3A    -11.217531
       4A     -1.064932     5A     -0.932795     6A     -0.758093
       7A     -0.640065     8A     -0.582622     9A     -0.568358
      10A     -0.523405    11A     -0.493152    12A     -0.357997

  @DF-RHF Final Energy:  -117.11687581262839

   => Energetics <=

    Nuclear Repulsion Energy =             70.8713837239297959
    One-Electron Energy =                -296.7882085665784189
    Two-Electron Energy =                 108.7999490300202297
    Total Energy =                       -117.1168758126283933

  Dipole Moment: [D]
     X:     0.2102      Y:     0.3616      Z:    -0.0649     Total:     0.4233

    SAPT Results
  --------------------------------------------------------------------------------------------------------
    Electrostatics                 -1.39455828 [mEh]      -0.87509853 [kcal/mol]      -3.66141226 [kJ/mol]
      Elst10,r                     -1.39455828 [mEh]      -0.87509853 [kcal/mol]      -3.66141226 [kJ/mol]

    Exchange                        2.75633199 [mEh]       1.72962444 [kcal/mol]       7.23674865 [kJ/mol]
      Exch10                        2.75633199 [mEh]       1.72962444 [kcal/mol]       7.23674865 [kJ/mol]
      Exch10(S^2)                   2.75163509 [mEh]       1.72667709 [kcal/mol]       7.22441693 [kJ/mol]

    Induction                      -0.29458627 [mEh]      -0.18485567 [kcal/mol]      -0.77343614 [kJ/mol]
      Ind20,r                      -0.73208104 [mEh]      -0.45938779 [kcal/mol]      -1.92207852 [kJ/mol]
      Exch-Ind20,r                  0.64717574 [mEh]       0.40610891 [kcal/mol]       1.69915966 [kJ/mol]
      delta HF,r (2)               -0.20968096 [mEh]      -0.13157679 [kcal/mol]      -0.55051729 [kJ/mol]

    Dispersion                     -4.07293966 [mEh]      -2.55580822 [kcal/mol]     -10.69350159 [kJ/mol]
      Disp20                       -4.44864210 [mEh]      -2.79156506 [kcal/mol]     -11.67990821 [kJ/mol]
      Exch-Disp20                   0.37570244 [mEh]       0.23575684 [kcal/mol]       0.98640662 [kJ/mol]
      Disp20 (SS)                  -2.22432105 [mEh]      -1.39578253 [kcal/mol]      -5.83995411 [kJ/mol]
      Disp20 (OS)                  -2.22432105 [mEh]      -1.39578253 [kcal/mol]      -5.83995411 [kJ/mol]
      Exch-Disp20 (SS)              0.24755154 [mEh]       0.15534094 [kcal/mol]       0.64994648 [kJ/mol]
      Exch-Disp20 (OS)              0.12815090 [mEh]       0.08041590 [kcal/mol]       0.33646015 [kJ/mol]

  Total HF                          1.06718744 [mEh]       0.66967023 [kcal/mol]       2.80190025 [kJ/mol]
  Total SAPT0                      -3.00575221 [mEh]      -1.88613799 [kcal/mol]      -7.89160134 [kJ/mol]

  Special recipe for scaled SAPT0 (see Manual):
    Electrostatics sSAPT0          -1.39455828 [mEh]      -0.87509853 [kcal/mol]      -3.66141226 [kJ/mol]
    Exchange sSAPT0                 2.75633199 [mEh]       1.72962444 [kcal/mol]       7.23674865 [kJ/mol]
    Induction sSAPT0               -0.29126652 [mEh]      -0.18277250 [kcal/mol]      -0.76472014 [kJ/mol]
    Dispersion sSAPT0              -4.07101245 [mEh]      -2.55459888 [kcal/mol]     -10.68844172 [kJ/mol]
  Total sSAPT0                     -3.00050526 [mEh]      -1.88284548 [kcal/mol]      -7.87782547 [kJ/mol]
  --------------------------------------------------------------------------------------------------------

*** Psi4 exiting successfully. Buy a developer a beer!
