                               Psi4 1.3.2 release

  ==> Input File <==

--------------------------------------------------------------------------
# Any line starting with the # character is a comment line
#! Sample  computation

memory 22 gb

molecule Dimer {

0 1
 C                 -2.20749297   -1.23362495    0.27379190
 C                 -1.89651497   -0.05066695   -0.63477110
 C                 -1.99746997    1.27856805    0.10290890
 H                 -1.51781897   -1.26494395    1.11875790
 H                 -3.21867997   -1.15607095    0.67592990
 H                 -2.12880297   -2.18169895   -0.25777510
 H                 -2.58378597   -0.05105495   -1.48337010
 H                 -0.89299397   -0.16347895   -1.05015310
 H                 -1.77108897    2.12089405   -0.55056710
 H                 -3.00271697    1.42249405    0.50177790
 H                 -1.30065797    1.30968805    0.94199090
--
0 1
 C                  2.20719397   -1.23377805   -0.27379590
 C                  1.89665797   -0.05073705    0.63481110
 C                  1.99764497    1.27845295   -0.10294190
 H                  1.51727997   -1.26504805   -1.11857390
 H                  3.21827997   -1.15638705   -0.67621790
 H                  2.12849797   -2.18181505    0.25783510
 H                  2.58414597   -0.05120605    1.48323410
 H                  0.89322097   -0.16336105    1.05045610
 H                  1.77162997    2.12083695    0.55058610
 H                  3.00279697    1.42218195   -0.50212190
 H                  1.30058097    1.30967795   -0.94180090

units angstrom
no_reorient
symmetry c1
}

set globals{
  basis jun-cc-pvtz
}

energy('sapt0')
--------------------------------------------------------------------------

  //              Dimer HF             //
    Molecular point group: c1
  Charge       = 0
  Multiplicity = 1
  Basis Set: JUN-CC-PVTZ
    Blend: JUN-CC-PVTZ
  Basis Set: (JUN-CC-PVTZ AUX)
    Blend: JUN-CC-PVTZ-JKFIT
  @DF-RHF Final Energy:  -236.61473440301313
    Total Energy =                       -236.6147344030131308
  //            Monomer A HF           //
    Molecular point group: c1
  Multiplicity = 1
  Basis Set: JUN-CC-PVTZ
    Blend: JUN-CC-PVTZ
  Basis Set: (JUN-CC-PVTZ AUX)
    Blend: JUN-CC-PVTZ-JKFIT
  @DF-RHF Final Energy:  -118.30809649201277
    Total Energy =                       -118.3080964920127656
  //            Monomer B HF           //
    Molecular point group: c1

    Geometry (in Angstrom), charge = 0, multiplicity = 1:

       Center              X                  Y                   Z               Mass
    ------------   -----------------  -----------------  -----------------  -----------------
      Gh(C)          -2.207494264928    -1.232828688463     0.273791628726    12.000000000000
      Gh(C)          -1.896516264928    -0.049870688463    -0.634771371274    12.000000000000
      Gh(C)          -1.997471264928     1.279364311537     0.102908628726    12.000000000000
      Gh(H)          -1.517820264928    -1.264147688463     1.118757628726     1.007825032230
      Gh(H)          -3.218681264928    -1.155274688463     0.675929628726     1.007825032230
      Gh(H)          -2.128804264928    -2.180902688463    -0.257775371274     1.007825032230
      Gh(H)          -2.583787264928    -0.050258688463    -1.483370371274     1.007825032230
      Gh(H)          -0.892995264928    -0.162682688463    -1.050153371274     1.007825032230
      Gh(H)          -1.771090264928     2.121690311537    -0.550567371274     1.007825032230
      Gh(H)          -3.002718264928     1.423290311537     0.501777628726     1.007825032230
      Gh(H)          -1.300659264928     1.310484311537     0.941990628726     1.007825032230
         C            2.207192675072    -1.232981788463    -0.273796171274    12.000000000000
         C            1.896656675072    -0.049940788463     0.634810828726    12.000000000000
         C            1.997643675072     1.279249211537    -0.102942171274    12.000000000000
         H            1.517278675072    -1.264251788463    -1.118574171274     1.007825032230
         H            3.218278675072    -1.155590788463    -0.676218171274     1.007825032230
         H            2.128496675072    -2.181018788463     0.257834828726     1.007825032230
         H            2.584144675072    -0.050409788463     1.483233828726     1.007825032230
         H            0.893219675072    -0.162564788463     1.050455828726     1.007825032230
         H            1.771628675072     2.121633211537     0.550585828726     1.007825032230
         H            3.002795675072     1.422978211537    -0.502122171274     1.007825032230
         H            1.300579675072     1.310474211537    -0.941801171274     1.007825032230

  Charge       = 0
  Multiplicity = 1
  Basis Set: JUN-CC-PVTZ
    Blend: JUN-CC-PVTZ
  Basis Set: (JUN-CC-PVTZ AUX)
    Blend: JUN-CC-PVTZ-JKFIT

    Orbital Energies [Eh]
    ---------------------

    Doubly Occupied:

       1A    -11.215581     2A    -11.207859     3A    -11.207815
       4A     -1.054043     5A     -0.924837     6A     -0.799825
       7A     -0.624737     8A     -0.598263     9A     -0.549394
      10A     -0.530203    11A     -0.475536    12A     -0.474961
      13A     -0.467987

  @DF-RHF Final Energy:  -118.30809650882078

   => Energetics <=

    Nuclear Repulsion Energy =             82.8172427563989686
    One-Electron Energy =                -321.9885968069244200
    Two-Electron Energy =                 120.8632575417046695
    Total Energy =                       -118.3080965088207819

  Dipole Moment: [D]
     X:    -0.0202      Y:    -0.0071      Z:     0.0809     Total:     0.0837

    SAPT Results
  --------------------------------------------------------------------------------------------------------
    Electrostatics                 -0.63841501 [mEh]      -0.40061147 [kcal/mol]      -1.67615838 [kJ/mol]
      Elst10,r                     -0.63841501 [mEh]      -0.40061147 [kcal/mol]      -1.67615838 [kJ/mol]

    Exchange                        2.30246612 [mEh]       1.44481930 [kcal/mol]       6.04512396 [kJ/mol]
      Exch10                        2.30246612 [mEh]       1.44481930 [kcal/mol]       6.04512396 [kJ/mol]
      Exch10(S^2)                   2.30028899 [mEh]       1.44345314 [kcal/mol]       6.03940792 [kJ/mol]

    Induction                      -0.20545329 [mEh]      -0.12892389 [kcal/mol]      -0.53941754 [kJ/mol]
      Ind20,r                      -0.31835685 [mEh]      -0.19977194 [kcal/mol]      -0.83584580 [kJ/mol]
      Exch-Ind20,r                  0.27096871 [mEh]       0.17003544 [kcal/mol]       0.71142826 [kJ/mol]
      delta HF,r (2)               -0.15806515 [mEh]      -0.09918738 [kcal/mol]      -0.41500000 [kJ/mol]

    Dispersion                     -4.29341687 [mEh]      -2.69415976 [kcal/mol]     -11.27236444 [kJ/mol]
      Disp20                       -4.56133475 [mEh]      -2.86228077 [kcal/mol]     -11.97578274 [kJ/mol]
      Exch-Disp20                   0.26791788 [mEh]       0.16812101 [kcal/mol]       0.70341830 [kJ/mol]
      Disp20 (SS)                  -2.28066738 [mEh]      -1.43114039 [kcal/mol]      -5.98789137 [kJ/mol]
      Disp20 (OS)                  -2.28066738 [mEh]      -1.43114039 [kcal/mol]      -5.98789137 [kJ/mol]
      Exch-Disp20 (SS)              0.17746615 [mEh]       0.11136169 [kcal/mol]       0.46593731 [kJ/mol]
      Exch-Disp20 (OS)              0.09045174 [mEh]       0.05675932 [kcal/mol]       0.23748100 [kJ/mol]

  Total HF                          1.45859782 [mEh]       0.91528395 [kcal/mol]       3.82954805 [kJ/mol]
  Total SAPT0                      -2.83481905 [mEh]      -1.77887581 [kcal/mol]      -7.44281639 [kJ/mol]

  Special recipe for scaled SAPT0 (see Manual):
    Electrostatics sSAPT0          -0.63841501 [mEh]      -0.40061147 [kcal/mol]      -1.67615838 [kJ/mol]
    Exchange sSAPT0                 2.30246612 [mEh]       1.44481930 [kcal/mol]       6.04512396 [kJ/mol]
    Induction sSAPT0               -0.20468318 [mEh]      -0.12844063 [kcal/mol]      -0.53739561 [kJ/mol]
    Dispersion sSAPT0              -4.29265543 [mEh]      -2.69368195 [kcal/mol]     -11.27036528 [kJ/mol]
  Total sSAPT0                     -2.83328750 [mEh]      -1.77791475 [kcal/mol]      -7.43879531 [kJ/mol]
  --------------------------------------------------------------------------------------------------------

*** Psi4 exiting successfully. Buy a developer a beer!
