                               Psi4 1.3.2 release

  ==> Input File <==

--------------------------------------------------------------------------
# Any line starting with the # character is a comment line
#! Sample  computation

memory 22 gb

molecule Dimer {

0 1
 C                 -1.90964691    1.94190005   -0.37977156
 C                 -2.80690391    1.09220905    0.12726944
 C                 -2.91888991   -0.34687495   -0.26288456
 H                 -1.87512891    2.97594305   -0.06570056
 H                 -1.19034191    1.61397405   -1.11965156
 H                 -3.50814191    1.45615805    0.87144544
 H                 -3.90665191   -0.56220295   -0.67352856
 H                 -2.16830391   -0.60779295   -1.00757756
 H                 -2.78526391   -0.99825595    0.60278944
--
0 1
 C                  1.90981091   -1.94191705    0.38029856
 C                  2.80646491   -1.09213405   -0.12765444
 C                  2.91908391    0.34683295    0.26272756
 H                  1.87481491   -2.97585505    0.06593756
 H                  1.19149891   -1.61419705    1.12123356
 H                  3.50669291   -1.45592605   -0.87286144
 H                  2.78433691    0.99846195   -0.60259044
 H                  2.16954891    0.60763195    1.00852256
 H                  3.90742791    0.56196495    0.67207356

units angstrom
no_reorient
symmetry c1
}

set globals{
  basis jun-cc-pvtz
}

energy('sapt0')
--------------------------------------------------------------------------

  //              Dimer HF             //
    Molecular point group: c1
  Charge       = 0
  Multiplicity = 1
  Basis Set: JUN-CC-PVTZ
    Blend: JUN-CC-PVTZ
  Basis Set: (JUN-CC-PVTZ AUX)
    Blend: JUN-CC-PVTZ-JKFIT
  @DF-RHF Final Energy:  -234.23381860743581
    Total Energy =                       -234.2338186074358077
  //            Monomer A HF           //
    Molecular point group: c1
  Multiplicity = 1
  Basis Set: JUN-CC-PVTZ
    Blend: JUN-CC-PVTZ
  Basis Set: (JUN-CC-PVTZ AUX)
    Blend: JUN-CC-PVTZ-JKFIT
  @DF-RHF Final Energy:  -117.11685481482303
    Total Energy =                       -117.1168548148230286
  //            Monomer B HF           //
    Molecular point group: c1

    Geometry (in Angstrom), charge = 0, multiplicity = 1:

       Center              X                  Y                   Z               Mass
    ------------   -----------------  -----------------  -----------------  -----------------
      Gh(C)          -1.909641199938     1.941898917352    -0.379770522111    12.000000000000
      Gh(C)          -2.806898199938     1.092207917352     0.127270477889    12.000000000000
      Gh(C)          -2.918884199938    -0.346876082648    -0.262883522111    12.000000000000
      Gh(H)          -1.875123199938     2.975941917352    -0.065699522111     1.007825032230
      Gh(H)          -1.190336199938     1.613972917352    -1.119650522111     1.007825032230
      Gh(H)          -3.508136199938     1.456156917352     0.871446477889     1.007825032230
      Gh(H)          -3.906646199938    -0.562204082648    -0.673527522111     1.007825032230
      Gh(H)          -2.168298199938    -0.607794082648    -1.007576522111     1.007825032230
      Gh(H)          -2.785258199938    -0.998257082648     0.602790477889     1.007825032230
         C            1.909816620062    -1.941918182648     0.380299597889    12.000000000000
         C            2.806470620062    -1.092135182648    -0.127653402111    12.000000000000
         C            2.919089620062     0.346831817352     0.262728597889    12.000000000000
         H            1.874820620062    -2.975856182648     0.065938597889     1.007825032230
         H            1.191504620062    -1.614198182648     1.121234597889     1.007825032230
         H            3.506698620062    -1.455927182648    -0.872860402111     1.007825032230
         H            2.784342620062     0.998460817352    -0.602589402111     1.007825032230
         H            2.169554620062     0.607630817352     1.008523597889     1.007825032230
         H            3.907433620062     0.561963817352     0.672074597889     1.007825032230

  Charge       = 0
  Multiplicity = 1
  Basis Set: JUN-CC-PVTZ
    Blend: JUN-CC-PVTZ
  Basis Set: (JUN-CC-PVTZ AUX)
    Blend: JUN-CC-PVTZ-JKFIT

    Orbital Energies [Eh]
    ---------------------

    Doubly Occupied:

       1A    -11.234393     2A    -11.220819     3A    -11.217535
       4A     -1.064935     5A     -0.932799     6A     -0.758097
       7A     -0.640070     8A     -0.582626     9A     -0.568359
      10A     -0.523409    11A     -0.493157    12A     -0.357997

  @DF-RHF Final Energy:  -117.11685501575347

   => Energetics <=

    Nuclear Repulsion Energy =             70.8713837239298101
    One-Electron Energy =                -296.7880851952359080
    Two-Electron Energy =                 108.7998464555526397
    Total Energy =                       -117.1168550157534725

  Dipole Moment: [D]
     X:     0.2099      Y:     0.3619      Z:    -0.0647     Total:     0.4233

    SAPT Results
  --------------------------------------------------------------------------------------------------------
    Electrostatics                 -0.14018076 [mEh]      -0.08796475 [kcal/mol]      -0.36804453 [kJ/mol]
      Elst10,r                     -0.14018076 [mEh]      -0.08796475 [kcal/mol]      -0.36804453 [kJ/mol]

    Exchange                        0.04410014 [mEh]       0.02767325 [kcal/mol]       0.11578489 [kJ/mol]
      Exch10                        0.04410014 [mEh]       0.02767325 [kcal/mol]       0.11578489 [kJ/mol]
      Exch10(S^2)                   0.04409911 [mEh]       0.02767261 [kcal/mol]       0.11578221 [kJ/mol]

    Induction                      -0.01269624 [mEh]      -0.00796701 [kcal/mol]      -0.03333397 [kJ/mol]
      Ind20,r                      -0.01706771 [mEh]      -0.01071015 [kcal/mol]      -0.04481126 [kJ/mol]
      Exch-Ind20,r                  0.00731365 [mEh]       0.00458939 [kcal/mol]       0.01920199 [kJ/mol]
      delta HF,r (2)               -0.00294218 [mEh]      -0.00184625 [kcal/mol]      -0.00772470 [kJ/mol]

    Dispersion                     -0.67681130 [mEh]      -0.42470550 [kcal/mol]      -1.77696782 [kJ/mol]
      Disp20                       -0.68475622 [mEh]      -0.42969102 [kcal/mol]      -1.79782721 [kJ/mol]
      Exch-Disp20                   0.00794492 [mEh]       0.00498551 [kcal/mol]       0.02085939 [kJ/mol]
      Disp20 (SS)                  -0.34237811 [mEh]      -0.21484551 [kcal/mol]      -0.89891360 [kJ/mol]
      Disp20 (OS)                  -0.34237811 [mEh]      -0.21484551 [kcal/mol]      -0.89891360 [kJ/mol]
      Exch-Disp20 (SS)              0.00563813 [mEh]       0.00353798 [kcal/mol]       0.01480292 [kJ/mol]
      Exch-Disp20 (OS)              0.00230679 [mEh]       0.00144753 [kcal/mol]       0.00605647 [kJ/mol]

  Total HF                         -0.10877686 [mEh]      -0.06825851 [kcal/mol]      -0.28559360 [kJ/mol]
  Total SAPT0                      -0.78558816 [mEh]      -0.49296401 [kcal/mol]      -2.06256142 [kJ/mol]

  Special recipe for scaled SAPT0 (see Manual):
    Electrostatics sSAPT0          -0.14018076 [mEh]      -0.08796475 [kcal/mol]      -0.36804453 [kJ/mol]
    Exchange sSAPT0                 0.04410014 [mEh]       0.02767325 [kcal/mol]       0.11578489 [kJ/mol]
    Induction sSAPT0               -0.01269573 [mEh]      -0.00796669 [kcal/mol]      -0.03333263 [kJ/mol]
    Dispersion sSAPT0              -0.67681074 [mEh]      -0.42470515 [kcal/mol]      -1.77696636 [kJ/mol]
  Total sSAPT0                     -0.78558709 [mEh]      -0.49296334 [kcal/mol]      -2.06255863 [kJ/mol]
  --------------------------------------------------------------------------------------------------------

*** Psi4 exiting successfully. Buy a developer a beer!
