                               Psi4 1.3.2 release

  ==> Input File <==

--------------------------------------------------------------------------
# Any line starting with the # character is a comment line
#! Sample  computation

memory 22 gb

molecule Dimer {

0 1
 C                 -2.08325863    2.11843719   -0.41432020
 C                 -2.98051563    1.26874619    0.09272080
 C                 -3.09250163   -0.17033781   -0.29743320
 H                 -2.04874063    3.15248019   -0.10024920
 H                 -1.36395363    1.79051119   -1.15420020
 H                 -3.68175363    1.63269519    0.83689680
 H                 -4.08026363   -0.38566581   -0.70807720
 H                 -2.34191563   -0.43125581   -1.04212620
 H                 -2.95887563   -0.82171881    0.56824080
--
0 1
 C                  2.08342263   -2.11845419    0.41484720
 C                  2.98007663   -1.26867119   -0.09310580
 C                  3.09269563    0.17029581    0.29727620
 H                  2.04842663   -3.15239219    0.10048620
 H                  1.36511063   -1.79073419    1.15578220
 H                  3.68030463   -1.63246319   -0.83831280
 H                  2.95794863    0.82192481   -0.56804180
 H                  2.34316063    0.43109481    1.04307120
 H                  4.08103963    0.38542781    0.70662220

units angstrom
no_reorient
symmetry c1
}

set globals{
  basis jun-cc-pvtz
}

energy('sapt0')
--------------------------------------------------------------------------

  //              Dimer HF             //
    Molecular point group: c1
  Charge       = 0
  Multiplicity = 1
  Basis Set: JUN-CC-PVTZ
    Blend: JUN-CC-PVTZ
  Basis Set: (JUN-CC-PVTZ AUX)
    Blend: JUN-CC-PVTZ-JKFIT
  @DF-RHF Final Energy:  -234.23378955140009
    Total Energy =                       -234.2337895514000934
  //            Monomer A HF           //
    Molecular point group: c1
  Multiplicity = 1
  Basis Set: JUN-CC-PVTZ
    Blend: JUN-CC-PVTZ
  Basis Set: (JUN-CC-PVTZ AUX)
    Blend: JUN-CC-PVTZ-JKFIT
  @DF-RHF Final Energy:  -117.11685176062903
    Total Energy =                       -117.1168517606290322
  //            Monomer B HF           //
    Molecular point group: c1

    Geometry (in Angstrom), charge = 0, multiplicity = 1:

       Center              X                  Y                   Z               Mass
    ------------   -----------------  -----------------  -----------------  -----------------
      Gh(C)          -2.083252919938     2.118436057352    -0.414319162111    12.000000000000
      Gh(C)          -2.980509919938     1.268745057352     0.092721837889    12.000000000000
      Gh(C)          -3.092495919938    -0.170338942648    -0.297432162111    12.000000000000
      Gh(H)          -2.048734919938     3.152479057352    -0.100248162111     1.007825032230
      Gh(H)          -1.363947919938     1.790510057352    -1.154199162111     1.007825032230
      Gh(H)          -3.681747919938     1.632694057352     0.836897837889     1.007825032230
      Gh(H)          -4.080257919938    -0.385666942648    -0.708076162111     1.007825032230
      Gh(H)          -2.341909919938    -0.431256942648    -1.042125162111     1.007825032230
      Gh(H)          -2.958869919938    -0.821719942648     0.568241837889     1.007825032230
         C            2.083428340062    -2.118455322648     0.414848237889    12.000000000000
         C            2.980082340062    -1.268672322648    -0.093104762111    12.000000000000
         C            3.092701340062     0.170294677352     0.297277237889    12.000000000000
         H            2.048432340062    -3.152393322648     0.100487237889     1.007825032230
         H            1.365116340062    -1.790735322648     1.155783237889     1.007825032230
         H            3.680310340062    -1.632464322648    -0.838311762111     1.007825032230
         H            2.957954340062     0.821923677352    -0.568040762111     1.007825032230
         H            2.343166340062     0.431093677352     1.043072237889     1.007825032230
         H            4.081045340062     0.385426677352     0.706623237889     1.007825032230

  Charge       = 0
  Multiplicity = 1
  Basis Set: JUN-CC-PVTZ
    Blend: JUN-CC-PVTZ
  Basis Set: (JUN-CC-PVTZ AUX)
    Blend: JUN-CC-PVTZ-JKFIT

    Orbital Energies [Eh]
    ---------------------

    Doubly Occupied:

       1A    -11.234392     2A    -11.220818     3A    -11.217532
       4A     -1.064934     5A     -0.932798     6A     -0.758096
       7A     -0.640068     8A     -0.582625     9A     -0.568359
      10A     -0.523408    11A     -0.493155    12A     -0.357996

  @DF-RHF Final Energy:  -117.11685195973909

   => Energetics <=

    Nuclear Repulsion Energy =             70.8713837239297959
    One-Electron Energy =                -296.7881069309511304
    Two-Electron Energy =                 108.7998712472822405
    Total Energy =                       -117.1168519597390940

  Dipole Moment: [D]
     X:     0.2100      Y:     0.3621      Z:    -0.0644     Total:     0.4235

    SAPT Results
  --------------------------------------------------------------------------------------------------------
    Electrostatics                 -0.09058856 [mEh]      -0.05684518 [kcal/mol]      -0.23784024 [kJ/mol]
      Elst10,r                     -0.09058856 [mEh]      -0.05684518 [kcal/mol]      -0.23784024 [kJ/mol]

    Exchange                        0.01041467 [mEh]       0.00653530 [kcal/mol]       0.02734370 [kJ/mol]
      Exch10                        0.01041467 [mEh]       0.00653530 [kcal/mol]       0.02734370 [kJ/mol]
      Exch10(S^2)                   0.01041462 [mEh]       0.00653527 [kcal/mol]       0.02734358 [kJ/mol]

    Induction                      -0.00565714 [mEh]      -0.00354991 [kcal/mol]      -0.01485281 [kJ/mol]
      Ind20,r                      -0.00665916 [mEh]      -0.00417869 [kcal/mol]      -0.01748363 [kJ/mol]
      Exch-Ind20,r                  0.00160874 [mEh]       0.00100950 [kcal/mol]       0.00422375 [kJ/mol]
      delta HF,r (2)               -0.00060671 [mEh]      -0.00038072 [kcal/mol]      -0.00159293 [kJ/mol]

    Dispersion                     -0.40414512 [mEh]      -0.25360489 [kcal/mol]      -1.06108288 [kJ/mol]
      Disp20                       -0.40615526 [mEh]      -0.25486627 [kcal/mol]      -1.06636049 [kJ/mol]
      Exch-Disp20                   0.00201014 [mEh]       0.00126138 [kcal/mol]       0.00527762 [kJ/mol]
      Disp20 (SS)                  -0.20307763 [mEh]      -0.12743314 [kcal/mol]      -0.53318025 [kJ/mol]
      Disp20 (OS)                  -0.20307763 [mEh]      -0.12743314 [kcal/mol]      -0.53318025 [kJ/mol]
      Exch-Disp20 (SS)              0.00145741 [mEh]       0.00091454 [kcal/mol]       0.00382643 [kJ/mol]
      Exch-Disp20 (OS)              0.00055273 [mEh]       0.00034684 [kcal/mol]       0.00145118 [kJ/mol]

  Total HF                         -0.08583103 [mEh]      -0.05385979 [kcal/mol]      -0.22534934 [kJ/mol]
  Total SAPT0                      -0.48997616 [mEh]      -0.30746468 [kcal/mol]      -1.28643222 [kJ/mol]

  Special recipe for scaled SAPT0 (see Manual):
    Electrostatics sSAPT0          -0.09058856 [mEh]      -0.05684518 [kcal/mol]      -0.23784024 [kJ/mol]
    Exchange sSAPT0                 0.01041467 [mEh]       0.00653530 [kcal/mol]       0.02734370 [kJ/mol]
    Induction sSAPT0               -0.00565711 [mEh]      -0.00354989 [kcal/mol]      -0.01485275 [kJ/mol]
    Dispersion sSAPT0              -0.40414510 [mEh]      -0.25360488 [kcal/mol]      -1.06108280 [kJ/mol]
  Total sSAPT0                     -0.48997611 [mEh]      -0.30746465 [kcal/mol]      -1.28643209 [kJ/mol]
  --------------------------------------------------------------------------------------------------------

*** Psi4 exiting successfully. Buy a developer a beer!
