                               Psi4 1.3.2 release

  ==> Input File <==

--------------------------------------------------------------------------
# Any line starting with the # character is a comment line
#! Sample  computation

memory 22 gb

molecule Dimer {

0 1
 C                 -1.04158831    1.05921435   -0.20702836
 C                 -1.93884531    0.20952335    0.30001264
 C                 -2.05083131   -1.22956065   -0.09014136
 H                 -1.00707031    2.09325735    0.10704264
 H                 -0.32228331    0.73128835   -0.94690836
 H                 -2.64008331    0.57347235    1.04418864
 H                 -3.03859331   -1.44488865   -0.50078536
 H                 -1.30024531   -1.49047865   -0.83483436
 H                 -1.91720531   -1.88094165    0.77553264
--
0 1
 C                  1.04175231   -1.05923135    0.20755536
 C                  1.93840631   -0.20944835   -0.30039764
 C                  2.05102531    1.22951865    0.08998436
 H                  1.00675631   -2.09316935   -0.10680564
 H                  0.32344031   -0.73151135    0.94849036
 H                  2.63863431   -0.57324035   -1.04560464
 H                  1.91627831    1.88114765   -0.77533364
 H                  1.30149031    1.49031765    0.83577936
 H                  3.03936931    1.44465065    0.49933036

units angstrom
no_reorient
symmetry c1
}

set globals{
  basis jun-cc-pvtz
}

energy('sapt0')
--------------------------------------------------------------------------

  //              Dimer HF             //
    Molecular point group: c1
  Charge       = 0
  Multiplicity = 1
  Basis Set: JUN-CC-PVTZ
    Blend: JUN-CC-PVTZ
  Basis Set: (JUN-CC-PVTZ AUX)
    Blend: JUN-CC-PVTZ-JKFIT
  @DF-RHF Final Energy:  -234.21403551991540
    Total Energy =                       -234.2140355199153987
  //            Monomer A HF           //
    Molecular point group: c1
  Multiplicity = 1
  Basis Set: JUN-CC-PVTZ
    Blend: JUN-CC-PVTZ
  Basis Set: (JUN-CC-PVTZ AUX)
    Blend: JUN-CC-PVTZ-JKFIT
  @DF-RHF Final Energy:  -117.11691558155518
    Total Energy =                       -117.1169155815551761
  //            Monomer B HF           //
    Molecular point group: c1

    Geometry (in Angstrom), charge = 0, multiplicity = 1:

       Center              X                  Y                   Z               Mass
    ------------   -----------------  -----------------  -----------------  -----------------
      Gh(C)          -1.041582599938     1.059213217352    -0.207027322111    12.000000000000
      Gh(C)          -1.938839599938     0.209522217352     0.300013677889    12.000000000000
      Gh(C)          -2.050825599938    -1.229561782648    -0.090140322111    12.000000000000
      Gh(H)          -1.007064599938     2.093256217352     0.107043677889     1.007825032230
      Gh(H)          -0.322277599938     0.731287217352    -0.946907322111     1.007825032230
      Gh(H)          -2.640077599938     0.573471217352     1.044189677889     1.007825032230
      Gh(H)          -3.038587599938    -1.444889782648    -0.500784322111     1.007825032230
      Gh(H)          -1.300239599938    -1.490479782648    -0.834833322111     1.007825032230
      Gh(H)          -1.917199599938    -1.880942782648     0.775533677889     1.007825032230
         C            1.041758020062    -1.059232482648     0.207556397889    12.000000000000
         C            1.938412020062    -0.209449482648    -0.300396602111    12.000000000000
         C            2.051031020062     1.229517517352     0.089985397889    12.000000000000
         H            1.006762020062    -2.093170482648    -0.106804602111     1.007825032230
         H            0.323446020062    -0.731512482648     0.948491397889     1.007825032230
         H            2.638640020062    -0.573241482648    -1.045603602111     1.007825032230
         H            1.916284020062     1.881146517352    -0.775332602111     1.007825032230
         H            1.301496020062     1.490316517352     0.835780397889     1.007825032230
         H            3.039375020062     1.444649517352     0.499331397889     1.007825032230

  Charge       = 0
  Multiplicity = 1
  Basis Set: JUN-CC-PVTZ
    Blend: JUN-CC-PVTZ
  Basis Set: (JUN-CC-PVTZ AUX)
    Blend: JUN-CC-PVTZ-JKFIT

    Orbital Energies [Eh]
    ---------------------

    Doubly Occupied:

       1A    -11.234383     2A    -11.220807     3A    -11.217521
       4A     -1.064919     5A     -0.932781     6A     -0.758078
       7A     -0.640047     8A     -0.582604     9A     -0.568352
      10A     -0.523389    11A     -0.493134    12A     -0.358001

  @DF-RHF Final Energy:  -117.11691594498014

   => Energetics <=

    Nuclear Repulsion Energy =             70.8713837239297959
    One-Electron Energy =                -296.7885703359916647
    Two-Electron Energy =                 108.8002706670817332
    Total Energy =                       -117.1169159449801356

  Dipole Moment: [D]
     X:     0.2102      Y:     0.3621      Z:    -0.0646     Total:     0.4236

    SAPT Results
  --------------------------------------------------------------------------------------------------------
    Electrostatics                -14.64713660 [mEh]      -9.19121698 [kcal/mol]     -38.45605184 [kJ/mol]
      Elst10,r                    -14.64713660 [mEh]      -9.19121698 [kcal/mol]     -38.45605184 [kJ/mol]

    Exchange                       37.83704687 [mEh]      23.74310537 [kcal/mol]      99.34115286 [kJ/mol]
      Exch10                       37.83704687 [mEh]      23.74310537 [kcal/mol]      99.34115286 [kJ/mol]
      Exch10(S^2)                  37.16140686 [mEh]      23.31913486 [kcal/mol]      97.56726027 [kJ/mol]

    Induction                      -3.39390365 [mEh]      -2.12970669 [kcal/mol]      -8.91069280 [kJ/mol]
      Ind20,r                     -13.11465241 [mEh]      -8.22956863 [kcal/mol]     -34.43251515 [kJ/mol]
      Exch-Ind20,r                 12.23440716 [mEh]       7.67720640 [kcal/mol]      32.12143156 [kJ/mol]
      delta HF,r (2)               -2.51365840 [mEh]      -1.57734446 [kcal/mol]      -6.59960921 [kJ/mol]

    Dispersion                    -16.05545550 [mEh]     -10.07495043 [kcal/mol]     -42.15359261 [kJ/mol]
      Disp20                      -19.74761021 [mEh]     -12.39181249 [kcal/mol]     -51.84734347 [kJ/mol]
      Exch-Disp20                   3.69215471 [mEh]       2.31686206 [kcal/mol]       9.69375086 [kJ/mol]
      Disp20 (SS)                  -9.87380511 [mEh]      -6.19590625 [kcal/mol]     -25.92367174 [kJ/mol]
      Disp20 (OS)                  -9.87380511 [mEh]      -6.19590625 [kcal/mol]     -25.92367174 [kJ/mol]
      Exch-Disp20 (SS)              2.37917534 [mEh]       1.49295507 [kcal/mol]       6.24652400 [kJ/mol]
      Exch-Disp20 (OS)              1.31297937 [mEh]       0.82390699 [kcal/mol]       3.44722686 [kJ/mol]

  Total HF                         19.79600662 [mEh]      12.42218170 [kcal/mol]      51.97440822 [kJ/mol]
  Total SAPT0                       3.74055112 [mEh]       2.34723126 [kcal/mol]       9.82081561 [kJ/mol]

  Special recipe for scaled SAPT0 (see Manual):
    Electrostatics sSAPT0         -14.64713660 [mEh]      -9.19121698 [kcal/mol]     -38.45605184 [kJ/mol]
    Exchange sSAPT0                37.83704687 [mEh]      23.74310537 [kcal/mol]      99.34115286 [kJ/mol]
    Induction sSAPT0               -2.71438798 [mEh]      -1.70330417 [kcal/mol]      -7.12662466 [kJ/mol]
    Dispersion sSAPT0             -15.85038819 [mEh]      -9.94626875 [kcal/mol]     -41.61518846 [kJ/mol]
  Total sSAPT0                      4.62513410 [mEh]       2.90231546 [kcal/mol]      12.14328790 [kJ/mol]
  --------------------------------------------------------------------------------------------------------

*** Psi4 exiting successfully. Buy a developer a beer!
