                               Psi4 1.3.2 release

  ==> Input File <==

--------------------------------------------------------------------------
# Any line starting with the # character is a comment line
#! Sample  computation

memory 22 gb

molecule Dimer {

0 1
 C                 -1.97516113   -1.23362924    0.35155381
 C                 -1.66418313   -0.05067124   -0.55700919
 C                 -1.76513813    1.27856376    0.18067081
 H                 -1.28548713   -1.26494824    1.19651981
 H                 -2.98634813   -1.15607524    0.75369181
 H                 -1.89647113   -2.18170324   -0.18001319
 H                 -2.35145413   -0.05105924   -1.40560819
 H                 -0.66066213   -0.16348324   -0.97239119
 H                 -1.53875713    2.12088976   -0.47280519
 H                 -2.77038513    1.42248976    0.57953981
 H                 -1.06832613    1.30968376    1.01975281
--
0 1
 C                  1.97486213   -1.23377376   -0.35155781
 C                  1.66432613   -0.05073276    0.55704919
 C                  1.76531313    1.27845724   -0.18070381
 H                  1.28494813   -1.26504376   -1.19633581
 H                  2.98594813   -1.15638276   -0.75397981
 H                  1.89616613   -2.18181076    0.18007319
 H                  2.35181413   -0.05120176    1.40547219
 H                  0.66088913   -0.16335676    0.97269419
 H                  1.53929813    2.12084124    0.47282419
 H                  2.77046513    1.42218624   -0.57988381
 H                  1.06824913    1.30968224   -1.01956281

units angstrom
no_reorient
symmetry c1
}

set globals{
  basis jun-cc-pvtz
}

energy('sapt0')
--------------------------------------------------------------------------

  //              Dimer HF             //
    Molecular point group: c1
  Charge       = 0
  Multiplicity = 1
  Basis Set: JUN-CC-PVTZ
    Blend: JUN-CC-PVTZ
  Basis Set: (JUN-CC-PVTZ AUX)
    Blend: JUN-CC-PVTZ-JKFIT
  @DF-RHF Final Energy:  -236.60989486752413
    Total Energy =                       -236.6098948675241331
  //            Monomer A HF           //
    Molecular point group: c1
  Multiplicity = 1
  Basis Set: JUN-CC-PVTZ
    Blend: JUN-CC-PVTZ
  Basis Set: (JUN-CC-PVTZ AUX)
    Blend: JUN-CC-PVTZ-JKFIT
  @DF-RHF Final Energy:  -118.30810924921352
    Total Energy =                       -118.3081092492135156
  //            Monomer B HF           //
    Molecular point group: c1

    Geometry (in Angstrom), charge = 0, multiplicity = 1:

       Center              X                  Y                   Z               Mass
    ------------   -----------------  -----------------  -----------------  -----------------
      Gh(C)          -1.975162424928    -1.232832978463     0.351553538726    12.000000000000
      Gh(C)          -1.664184424928    -0.049874978463    -0.557009461274    12.000000000000
      Gh(C)          -1.765139424928     1.279360021537     0.180670538726    12.000000000000
      Gh(H)          -1.285488424928    -1.264151978463     1.196519538726     1.007825032230
      Gh(H)          -2.986349424928    -1.155278978463     0.753691538726     1.007825032230
      Gh(H)          -1.896472424928    -2.180906978463    -0.180013461274     1.007825032230
      Gh(H)          -2.351455424928    -0.050262978463    -1.405608461274     1.007825032230
      Gh(H)          -0.660663424928    -0.162686978463    -0.972391461274     1.007825032230
      Gh(H)          -1.538758424928     2.121686021537    -0.472805461274     1.007825032230
      Gh(H)          -2.770386424928     1.423286021537     0.579539538726     1.007825032230
      Gh(H)          -1.068327424928     1.310480021537     1.019752538726     1.007825032230
         C            1.974860835072    -1.232977498463    -0.351558081274    12.000000000000
         C            1.664324835072    -0.049936498463     0.557048918726    12.000000000000
         C            1.765311835072     1.279253501537    -0.180704081274    12.000000000000
         H            1.284946835072    -1.264247498463    -1.196336081274     1.007825032230
         H            2.985946835072    -1.155586498463    -0.753980081274     1.007825032230
         H            1.896164835072    -2.181014498463     0.180072918726     1.007825032230
         H            2.351812835072    -0.050405498463     1.405471918726     1.007825032230
         H            0.660887835072    -0.162560498463     0.972693918726     1.007825032230
         H            1.539296835072     2.121637501537     0.472823918726     1.007825032230
         H            2.770463835072     1.422982501537    -0.579884081274     1.007825032230
         H            1.068247835072     1.310478501537    -1.019563081274     1.007825032230

  Charge       = 0
  Multiplicity = 1
  Basis Set: JUN-CC-PVTZ
    Blend: JUN-CC-PVTZ
  Basis Set: (JUN-CC-PVTZ AUX)
    Blend: JUN-CC-PVTZ-JKFIT

    Orbital Energies [Eh]
    ---------------------

    Doubly Occupied:

       1A    -11.215579     2A    -11.207859     3A    -11.207814
       4A     -1.054041     5A     -0.924835     6A     -0.799823
       7A     -0.624734     8A     -0.598260     9A     -0.549392
      10A     -0.530201    11A     -0.475536    12A     -0.474959
      13A     -0.467986

  @DF-RHF Final Energy:  -118.30810926361666

   => Energetics <=

    Nuclear Repulsion Energy =             82.8172427563989544
    One-Electron Energy =                -321.9886654597397069
    Two-Electron Energy =                 120.8633134397240809
    Total Energy =                       -118.3081092636166574

  Dipole Moment: [D]
     X:    -0.0202      Y:    -0.0071      Z:     0.0809     Total:     0.0837

    SAPT Results
  --------------------------------------------------------------------------------------------------------
    Electrostatics                 -3.16459050 [mEh]      -1.98581052 [kcal/mol]      -8.30863121 [kJ/mol]
      Elst10,r                     -3.16459050 [mEh]      -1.98581052 [kcal/mol]      -8.30863121 [kJ/mol]

    Exchange                       10.42549559 [mEh]       6.54209725 [kcal/mol]      27.37213490 [kJ/mol]
      Exch10                       10.42549559 [mEh]       6.54209725 [kcal/mol]      27.37213490 [kJ/mol]
      Exch10(S^2)                  10.38328847 [mEh]       6.51561188 [kcal/mol]      27.26132012 [kJ/mol]

    Induction                      -0.93725979 [mEh]      -0.58813940 [kcal/mol]      -2.46077523 [kJ/mol]
      Ind20,r                      -1.83471506 [mEh]      -1.15130108 [kcal/mol]      -4.81704373 [kJ/mol]
      Exch-Ind20,r                  1.61739990 [mEh]       1.01493376 [kcal/mol]       4.24648284 [kJ/mol]
      delta HF,r (2)               -0.71994462 [mEh]      -0.45177207 [kcal/mol]      -1.89021435 [kJ/mol]

    Dispersion                     -9.06127793 [mEh]      -5.68603774 [kcal/mol]     -23.79038192 [kJ/mol]
      Disp20                      -10.11949804 [mEh]      -6.35008089 [kcal/mol]     -26.56873844 [kJ/mol]
      Exch-Disp20                   1.05822011 [mEh]       0.66404315 [kcal/mol]       2.77835653 [kJ/mol]
      Disp20 (SS)                  -5.05974902 [mEh]      -3.17504044 [kcal/mol]     -13.28436922 [kJ/mol]
      Disp20 (OS)                  -5.05974902 [mEh]      -3.17504044 [kcal/mol]     -13.28436922 [kJ/mol]
      Exch-Disp20 (SS)              0.68708328 [mEh]       0.43115127 [kcal/mol]       1.80393692 [kJ/mol]
      Exch-Disp20 (OS)              0.37113683 [mEh]       0.23289188 [kcal/mol]       0.97441961 [kJ/mol]

  Total HF                          6.32364531 [mEh]       3.96814734 [kcal/mol]      16.60272846 [kJ/mol]
  Total SAPT0                      -2.73763262 [mEh]      -1.71789040 [kcal/mol]      -7.18765345 [kJ/mol]

  Special recipe for scaled SAPT0 (see Manual):
    Electrostatics sSAPT0          -3.16459050 [mEh]      -1.98581052 [kcal/mol]      -8.30863121 [kJ/mol]
    Exchange sSAPT0                10.42549559 [mEh]       6.54209725 [kcal/mol]      27.37213490 [kJ/mol]
    Induction sSAPT0               -0.91745575 [mEh]      -0.57571218 [kcal/mol]      -2.40877974 [kJ/mol]
    Dispersion sSAPT0              -9.04832069 [mEh]      -5.67790696 [kcal/mol]     -23.75636270 [kJ/mol]
  Total sSAPT0                     -2.70487135 [mEh]      -1.69733240 [kcal/mol]      -7.10163875 [kJ/mol]
  --------------------------------------------------------------------------------------------------------

*** Psi4 exiting successfully. Buy a developer a beer!
