                               Psi4 1.3.2 release

  ==> Input File <==

--------------------------------------------------------------------------
# Any line starting with the # character is a comment line
#! Sample  computation

memory 22 gb

molecule Dimer {

0 1
 C                 -1.56242347    1.58882577   -0.31067428
 C                 -2.45968047    0.73913477    0.19636672
 C                 -2.57166647   -0.69994923   -0.19378728
 H                 -1.52790547    2.62286877    0.00339672
 H                 -0.84311847    1.26089977   -1.05055428
 H                 -3.16091847    1.10308377    0.94054272
 H                 -3.55942847   -0.91527723   -0.60443128
 H                 -1.82108047   -0.96086723   -0.93848028
 H                 -2.43804047   -1.35133023    0.67188672
--
0 1
 C                  1.56258747   -1.58884277    0.31120128
 C                  2.45924147   -0.73905977   -0.19675172
 C                  2.57186047    0.69990723    0.19363028
 H                  1.52759147   -2.62278077   -0.00315972
 H                  0.84427547   -1.26112277    1.05213628
 H                  3.15946947   -1.10285177   -0.94195872
 H                  2.43711347    1.35153623   -0.67168772
 H                  1.82232547    0.96070623    0.93942528
 H                  3.56020447    0.91503923    0.60297628

units angstrom
no_reorient
symmetry c1
}

set globals{
  basis jun-cc-pvtz
}

energy('sapt0')
--------------------------------------------------------------------------

  //              Dimer HF             //
    Molecular point group: c1
  Charge       = 0
  Multiplicity = 1
  Basis Set: JUN-CC-PVTZ
    Blend: JUN-CC-PVTZ
  Basis Set: (JUN-CC-PVTZ AUX)
    Blend: JUN-CC-PVTZ-JKFIT
  @DF-RHF Final Energy:  -234.23363516667968
    Total Energy =                       -234.2336351666796759
  //            Monomer A HF           //
    Molecular point group: c1
  Multiplicity = 1
  Basis Set: JUN-CC-PVTZ
    Blend: JUN-CC-PVTZ
  Basis Set: (JUN-CC-PVTZ AUX)
    Blend: JUN-CC-PVTZ-JKFIT
  @DF-RHF Final Energy:  -117.11686562149247
    Total Energy =                       -117.1168656214924653
  //            Monomer B HF           //
    Molecular point group: c1

    Geometry (in Angstrom), charge = 0, multiplicity = 1:

       Center              X                  Y                   Z               Mass
    ------------   -----------------  -----------------  -----------------  -----------------
      Gh(C)          -1.562417759938     1.588824637352    -0.310673242111    12.000000000000
      Gh(C)          -2.459674759938     0.739133637352     0.196367757889    12.000000000000
      Gh(C)          -2.571660759938    -0.699950362648    -0.193786242111    12.000000000000
      Gh(H)          -1.527899759938     2.622867637352     0.003397757889     1.007825032230
      Gh(H)          -0.843112759938     1.260898637352    -1.050553242111     1.007825032230
      Gh(H)          -3.160912759938     1.103082637352     0.940543757889     1.007825032230
      Gh(H)          -3.559422759938    -0.915278362648    -0.604430242111     1.007825032230
      Gh(H)          -1.821074759938    -0.960868362648    -0.938479242111     1.007825032230
      Gh(H)          -2.438034759938    -1.351331362648     0.671887757889     1.007825032230
         C            1.562593180062    -1.588843902648     0.311202317889    12.000000000000
         C            2.459247180062    -0.739060902648    -0.196750682111    12.000000000000
         C            2.571866180062     0.699906097352     0.193631317889    12.000000000000
         H            1.527597180062    -2.622781902648    -0.003158682111     1.007825032230
         H            0.844281180062    -1.261123902648     1.052137317889     1.007825032230
         H            3.159475180062    -1.102852902648    -0.941957682111     1.007825032230
         H            2.437119180062     1.351535097352    -0.671686682111     1.007825032230
         H            1.822331180062     0.960705097352     0.939426317889     1.007825032230
         H            3.560210180062     0.915038097352     0.602977317889     1.007825032230

  Charge       = 0
  Multiplicity = 1
  Basis Set: JUN-CC-PVTZ
    Blend: JUN-CC-PVTZ
  Basis Set: (JUN-CC-PVTZ AUX)
    Blend: JUN-CC-PVTZ-JKFIT

    Orbital Energies [Eh]
    ---------------------

    Doubly Occupied:

       1A    -11.234392     2A    -11.220819     3A    -11.217536
       4A     -1.064936     5A     -0.932799     6A     -0.758097
       7A     -0.640069     8A     -0.582626     9A     -0.568359
      10A     -0.523409    11A     -0.493156    12A     -0.357998

  @DF-RHF Final Energy:  -117.11686583580017

   => Energetics <=

    Nuclear Repulsion Energy =             70.8713837239297959
    One-Electron Energy =                -296.7881056051326141
    Two-Electron Energy =                 108.7998560454026489
    Total Energy =                       -117.1168658358001693

  Dipole Moment: [D]
     X:     0.2100      Y:     0.3615      Z:    -0.0650     Total:     0.4231

    SAPT Results
  --------------------------------------------------------------------------------------------------------
    Electrostatics                 -0.53041649 [mEh]      -0.33284138 [kcal/mol]      -1.39260831 [kJ/mol]
      Elst10,r                     -0.53041649 [mEh]      -0.33284138 [kcal/mol]      -1.39260831 [kJ/mol]

    Exchange                        0.71791910 [mEh]       0.45050104 [kcal/mol]       1.88489635 [kJ/mol]
      Exch10                        0.71791910 [mEh]       0.45050104 [kcal/mol]       1.88489635 [kJ/mol]
      Exch10(S^2)                   0.71759779 [mEh]       0.45029941 [kcal/mol]       1.88405275 [kJ/mol]

    Induction                      -0.09121200 [mEh]      -0.05723639 [kcal/mol]      -0.23947706 [kJ/mol]
      Ind20,r                      -0.18678333 [mEh]      -0.11720831 [kcal/mol]      -0.49039957 [kJ/mol]
      Exch-Ind20,r                  0.14653512 [mEh]       0.09195218 [kcal/mol]       0.38472792 [kJ/mol]
      delta HF,r (2)               -0.05096379 [mEh]      -0.03198026 [kcal/mol]      -0.13380541 [kJ/mol]

    Dispersion                     -2.15257299 [mEh]      -1.35075994 [kcal/mol]      -5.65157960 [kJ/mol]
      Disp20                       -2.26180633 [mEh]      -1.41930490 [kcal/mol]      -5.93837170 [kJ/mol]
      Exch-Disp20                   0.10923334 [mEh]       0.06854496 [kcal/mol]       0.28679209 [kJ/mol]
      Disp20 (SS)                  -1.13090316 [mEh]      -0.70965245 [kcal/mol]      -2.96918585 [kJ/mol]
      Disp20 (OS)                  -1.13090316 [mEh]      -0.70965245 [kcal/mol]      -2.96918585 [kJ/mol]
      Exch-Disp20 (SS)              0.07372886 [mEh]       0.04626556 [kcal/mol]       0.19357510 [kJ/mol]
      Exch-Disp20 (OS)              0.03550448 [mEh]       0.02227940 [kcal/mol]       0.09321699 [kJ/mol]

  Total HF                          0.09629061 [mEh]       0.06042327 [kcal/mol]       0.25281097 [kJ/mol]
  Total SAPT0                      -2.05628238 [mEh]      -1.29033667 [kcal/mol]      -5.39876863 [kJ/mol]

  Special recipe for scaled SAPT0 (see Manual):
    Electrostatics sSAPT0          -0.53041649 [mEh]      -0.33284138 [kcal/mol]      -1.39260831 [kJ/mol]
    Exchange sSAPT0                 0.71791910 [mEh]       0.45050104 [kcal/mol]       1.88489635 [kJ/mol]
    Induction sSAPT0               -0.09101507 [mEh]      -0.05711282 [kcal/mol]      -0.23896004 [kJ/mol]
    Dispersion sSAPT0              -2.15242619 [mEh]      -1.35066783 [kcal/mol]      -5.65119419 [kJ/mol]
  Total sSAPT0                     -2.05593866 [mEh]      -1.29012098 [kcal/mol]      -5.39786620 [kJ/mol]
  --------------------------------------------------------------------------------------------------------

*** Psi4 exiting successfully. Buy a developer a beer!
