                               Psi4 1.3.2 release

  ==> Input File <==

--------------------------------------------------------------------------
# Any line starting with the # character is a comment line
#! Sample  computation

memory 22 gb

molecule Dimer {

0 1
 C                 -1.73334636   -1.23363371    0.43248967
 C                 -1.42236836   -0.05067571   -0.47607333
 C                 -1.52332336    1.27855929    0.26160667
 H                 -1.04367236   -1.26495271    1.27745567
 H                 -2.74453336   -1.15607971    0.83462767
 H                 -1.65465636   -2.18170771   -0.09907733
 H                 -2.10963936   -0.05106371   -1.32467233
 H                 -0.41884736   -0.16348771   -0.89145533
 H                 -1.29694236    2.12088529   -0.39186933
 H                 -2.52857036    1.42248529    0.66047567
 H                 -0.82651136    1.30967929    1.10068867
--
0 1
 C                  1.73304736   -1.23376929   -0.43249367
 C                  1.42251136   -0.05072829    0.47611333
 C                  1.52349836    1.27846171   -0.26163967
 H                  1.04313336   -1.26503929   -1.27727167
 H                  2.74413336   -1.15637829   -0.83491567
 H                  1.65435136   -2.18180629    0.09913733
 H                  2.10999936   -0.05119729    1.32453633
 H                  0.41907436   -0.16335229    0.89175833
 H                  1.29748336    2.12084571    0.39188833
 H                  2.52865036    1.42219071   -0.66081967
 H                  0.82643436    1.30968671   -1.10049867

units angstrom
no_reorient
symmetry c1
}

set globals{
  basis jun-cc-pvtz
}

energy('sapt0')
--------------------------------------------------------------------------

  //              Dimer HF             //
    Molecular point group: c1
  Charge       = 0
  Multiplicity = 1
  Basis Set: JUN-CC-PVTZ
    Blend: JUN-CC-PVTZ
  Basis Set: (JUN-CC-PVTZ AUX)
    Blend: JUN-CC-PVTZ-JKFIT
  @DF-RHF Final Energy:  -236.58893316729507
    Total Energy =                       -236.5889331672950675
  //            Monomer A HF           //
    Molecular point group: c1
  Multiplicity = 1
  Basis Set: JUN-CC-PVTZ
    Blend: JUN-CC-PVTZ
  Basis Set: (JUN-CC-PVTZ AUX)
    Blend: JUN-CC-PVTZ-JKFIT
  @DF-RHF Final Energy:  -118.30813645636610
    Total Energy =                       -118.3081364563660998
  //            Monomer B HF           //
    Molecular point group: c1

    Geometry (in Angstrom), charge = 0, multiplicity = 1:

       Center              X                  Y                   Z               Mass
    ------------   -----------------  -----------------  -----------------  -----------------
      Gh(C)          -1.733347654928    -1.232837448463     0.432489398726    12.000000000000
      Gh(C)          -1.422369654928    -0.049879448463    -0.476073601274    12.000000000000
      Gh(C)          -1.523324654928     1.279355551537     0.261606398726    12.000000000000
      Gh(H)          -1.043673654928    -1.264156448463     1.277455398726     1.007825032230
      Gh(H)          -2.744534654928    -1.155283448463     0.834627398726     1.007825032230
      Gh(H)          -1.654657654928    -2.180911448463    -0.099077601274     1.007825032230
      Gh(H)          -2.109640654928    -0.050267448463    -1.324672601274     1.007825032230
      Gh(H)          -0.418848654928    -0.162691448463    -0.891455601274     1.007825032230
      Gh(H)          -1.296943654928     2.121681551537    -0.391869601274     1.007825032230
      Gh(H)          -2.528571654928     1.423281551537     0.660475398726     1.007825032230
      Gh(H)          -0.826512654928     1.310475551537     1.100688398726     1.007825032230
         C            1.733046065072    -1.232973028463    -0.432493941274    12.000000000000
         C            1.422510065072    -0.049932028463     0.476113058726    12.000000000000
         C            1.523497065072     1.279257971537    -0.261639941274    12.000000000000
         H            1.043132065072    -1.264243028463    -1.277271941274     1.007825032230
         H            2.744132065072    -1.155582028463    -0.834915941274     1.007825032230
         H            1.654350065072    -2.181010028463     0.099137058726     1.007825032230
         H            2.109998065072    -0.050401028463     1.324536058726     1.007825032230
         H            0.419073065072    -0.162556028463     0.891758058726     1.007825032230
         H            1.297482065072     2.121641971537     0.391888058726     1.007825032230
         H            2.528649065072     1.422986971537    -0.660819941274     1.007825032230
         H            0.826433065072     1.310482971537    -1.100498941274     1.007825032230

  Charge       = 0
  Multiplicity = 1
  Basis Set: JUN-CC-PVTZ
    Blend: JUN-CC-PVTZ
  Basis Set: (JUN-CC-PVTZ AUX)
    Blend: JUN-CC-PVTZ-JKFIT

    Orbital Energies [Eh]
    ---------------------

    Doubly Occupied:

       1A    -11.215582     2A    -11.207865     3A    -11.207820
       4A     -1.054038     5A     -0.924834     6A     -0.799823
       7A     -0.624733     8A     -0.598259     9A     -0.549392
      10A     -0.530201    11A     -0.475535    12A     -0.474958
      13A     -0.467984

  @DF-RHF Final Energy:  -118.30813647945789

   => Energetics <=

    Nuclear Repulsion Energy =             82.8172427563989544
    One-Electron Energy =                -321.9887089099742639
    Two-Electron Energy =                 120.8633296741174092
    Total Energy =                       -118.3081364794578860

  Dipole Moment: [D]
     X:    -0.0204      Y:    -0.0072      Z:     0.0810     Total:     0.0839

    SAPT Results
  --------------------------------------------------------------------------------------------------------
    Electrostatics                -14.93261973 [mEh]      -9.37036035 [kcal/mol]     -39.20558770 [kJ/mol]
      Elst10,r                    -14.93261973 [mEh]      -9.37036035 [kcal/mol]     -39.20558770 [kJ/mol]

    Exchange                       46.25117224 [mEh]      29.02304876 [kcal/mol]     121.43243600 [kJ/mol]
      Exch10                       46.25117224 [mEh]      29.02304876 [kcal/mol]     121.43243600 [kJ/mol]
      Exch10(S^2)                  45.49571879 [mEh]      28.54899456 [kcal/mol]     119.44899323 [kJ/mol]

    Induction                      -3.97878398 [mEh]      -2.49672464 [kcal/mol]     -10.44629591 [kJ/mol]
      Ind20,r                     -10.97481664 [mEh]      -6.88680142 [kcal/mol]     -28.81437713 [kJ/mol]
      Exch-Ind20,r                  9.66015276 [mEh]       6.06183737 [kcal/mol]      25.36272757 [kJ/mol]
      delta HF,r (2)               -2.66412009 [mEh]      -1.67176060 [kcal/mol]      -6.99464634 [kJ/mol]

    Dispersion                    -20.50404614 [mEh]     -12.86648321 [kcal/mol]     -53.83336574 [kJ/mol]
      Disp20                      -24.41694080 [mEh]     -15.32186167 [kcal/mol]     -64.10666925 [kJ/mol]
      Exch-Disp20                   3.91289466 [mEh]       2.45537847 [kcal/mol]      10.27330351 [kJ/mol]
      Disp20 (SS)                 -12.20847040 [mEh]      -7.66093084 [kcal/mol]     -32.05333462 [kJ/mol]
      Disp20 (OS)                 -12.20847040 [mEh]      -7.66093084 [kcal/mol]     -32.05333462 [kJ/mol]
      Exch-Disp20 (SS)              2.51350378 [mEh]       1.57724743 [kcal/mol]       6.59920327 [kJ/mol]
      Exch-Disp20 (OS)              1.39939088 [mEh]       0.87813103 [kcal/mol]       3.67410024 [kJ/mol]

  Total HF                         27.33976853 [mEh]      17.15596376 [kcal/mol]      71.78055238 [kJ/mol]
  Total SAPT0                       6.83572238 [mEh]       4.28948056 [kcal/mol]      17.94718665 [kJ/mol]

  Special recipe for scaled SAPT0 (see Manual):
    Electrostatics sSAPT0         -14.93261973 [mEh]      -9.37036035 [kcal/mol]     -39.20558770 [kJ/mol]
    Exchange sSAPT0                46.25117224 [mEh]      29.02304876 [kcal/mol]     121.43243600 [kJ/mol]
    Induction sSAPT0               -3.48953053 [mEh]      -2.18971346 [kcal/mol]      -9.16176113 [kJ/mol]
    Dispersion sSAPT0             -20.30587151 [mEh]     -12.74212675 [kcal/mol]     -53.31305831 [kJ/mol]
  Total sSAPT0                      7.52315048 [mEh]       4.72084820 [kcal/mol]      19.75202885 [kJ/mol]
  --------------------------------------------------------------------------------------------------------

*** Psi4 exiting successfully. Buy a developer a beer!
