                               Psi4 1.3.2 release

  ==> Input File <==

--------------------------------------------------------------------------
# Any line starting with the # character is a comment line
#! Sample  computation

memory 22 gb

molecule Dimer {

0 1
 C                 -1.21520003    1.23575149   -0.24157700
 C                 -2.11245703    0.38606049    0.26546400
 C                 -2.22444303   -1.05302351   -0.12469000
 H                 -1.18068203    2.26979449    0.07249400
 H                 -0.49589503    0.90782549   -0.98145700
 H                 -2.81369503    0.75000949    1.00964000
 H                 -3.21220503   -1.26835151   -0.53533400
 H                 -1.47385703   -1.31394151   -0.86938300
 H                 -2.09081703   -1.70440451    0.74098400
--
0 1
 C                  1.21536403   -1.23576849    0.24210400
 C                  2.11201803   -0.38598549   -0.26584900
 C                  2.22463703    1.05298151    0.12453300
 H                  1.18036803   -2.26970649   -0.07225700
 H                  0.49705203   -0.90804849    0.98303900
 H                  2.81224603   -0.74977749   -1.01105600
 H                  2.08989003    1.70461051   -0.74078500
 H                  1.47510203    1.31378051    0.87032800
 H                  3.21298103    1.26811351    0.53387900

units angstrom
no_reorient
symmetry c1
}

set globals{
  basis jun-cc-pvtz
}

energy('sapt0')
--------------------------------------------------------------------------

  //              Dimer HF             //
    Molecular point group: c1
  Charge       = 0
  Multiplicity = 1
  Basis Set: JUN-CC-PVTZ
    Blend: JUN-CC-PVTZ
  Basis Set: (JUN-CC-PVTZ AUX)
    Blend: JUN-CC-PVTZ-JKFIT
  @DF-RHF Final Energy:  -234.22879288474226
    Total Energy =                       -234.2287928847422336
  //            Monomer A HF           //
    Molecular point group: c1
  Multiplicity = 1
  Basis Set: JUN-CC-PVTZ
    Blend: JUN-CC-PVTZ
  Basis Set: (JUN-CC-PVTZ AUX)
    Blend: JUN-CC-PVTZ-JKFIT
  @DF-RHF Final Energy:  -117.11688900368003
    Total Energy =                       -117.1168890036800292
  //            Monomer B HF           //
    Molecular point group: c1

    Geometry (in Angstrom), charge = 0, multiplicity = 1:

       Center              X                  Y                   Z               Mass
    ------------   -----------------  -----------------  -----------------  -----------------
      Gh(C)          -1.215194319938     1.235750357352    -0.241575962111    12.000000000000
      Gh(C)          -2.112451319938     0.386059357352     0.265465037889    12.000000000000
      Gh(C)          -2.224437319938    -1.053024642648    -0.124688962111    12.000000000000
      Gh(H)          -1.180676319938     2.269793357352     0.072495037889     1.007825032230
      Gh(H)          -0.495889319938     0.907824357352    -0.981455962111     1.007825032230
      Gh(H)          -2.813689319938     0.750008357352     1.009641037889     1.007825032230
      Gh(H)          -3.212199319938    -1.268352642648    -0.535332962111     1.007825032230
      Gh(H)          -1.473851319938    -1.313942642648    -0.869381962111     1.007825032230
      Gh(H)          -2.090811319938    -1.704405642648     0.740985037889     1.007825032230
         C            1.215369740062    -1.235769622648     0.242105037889    12.000000000000
         C            2.112023740062    -0.385986622648    -0.265847962111    12.000000000000
         C            2.224642740062     1.052980377352     0.124534037889    12.000000000000
         H            1.180373740062    -2.269707622648    -0.072255962111     1.007825032230
         H            0.497057740062    -0.908049622648     0.983040037889     1.007825032230
         H            2.812251740062    -0.749778622648    -1.011054962111     1.007825032230
         H            2.089895740062     1.704609377352    -0.740783962111     1.007825032230
         H            1.475107740062     1.313779377352     0.870329037889     1.007825032230
         H            3.212986740062     1.268112377352     0.533880037889     1.007825032230

  Charge       = 0
  Multiplicity = 1
  Basis Set: JUN-CC-PVTZ
    Blend: JUN-CC-PVTZ
  Basis Set: (JUN-CC-PVTZ AUX)
    Blend: JUN-CC-PVTZ-JKFIT

    Orbital Energies [Eh]
    ---------------------

    Doubly Occupied:

       1A    -11.234385     2A    -11.220814     3A    -11.217523
       4A     -1.064927     5A     -0.932790     6A     -0.758086
       7A     -0.640058     8A     -0.582615     9A     -0.568356
      10A     -0.523399    11A     -0.493145    12A     -0.357996

  @DF-RHF Final Energy:  -117.11688925415962

   => Energetics <=

    Nuclear Repulsion Energy =             70.8713837239298101
    One-Electron Energy =                -296.7883571043253710
    Two-Electron Energy =                 108.8000841262359586
    Total Energy =                       -117.1168892541596165

  Dipole Moment: [D]
     X:     0.2104      Y:     0.3619      Z:    -0.0648     Total:     0.4236

    SAPT Results
  --------------------------------------------------------------------------------------------------------
    Electrostatics                 -4.30086516 [mEh]      -2.69883363 [kcal/mol]     -11.29191992 [kJ/mol]
      Elst10,r                     -4.30086516 [mEh]      -2.69883363 [kcal/mol]     -11.29191992 [kJ/mol]

    Exchange                       10.29026831 [mEh]       6.45724085 [kcal/mol]      27.01709572 [kJ/mol]
      Exch10                       10.29026831 [mEh]       6.45724085 [kcal/mol]      27.01709572 [kJ/mol]
      Exch10(S^2)                  10.23042335 [mEh]       6.41968757 [kcal/mol]      26.85997281 [kJ/mol]

    Induction                      -1.00403005 [mEh]      -0.63003837 [kcal/mol]      -2.63608054 [kJ/mol]
      Ind20,r                      -3.04192068 [mEh]      -1.90883405 [kcal/mol]      -7.98656166 [kJ/mol]
      Exch-Ind20,r                  2.84043538 [mEh]       1.78240011 [kcal/mol]       7.45756206 [kJ/mol]
      delta HF,r (2)               -0.80254475 [mEh]      -0.50360443 [kcal/mol]      -2.10708094 [kJ/mol]

    Dispersion                     -7.95647049 [mEh]      -4.99276061 [kcal/mol]     -20.88971040 [kJ/mol]
      Disp20                       -9.17710473 [mEh]      -5.75872016 [kcal/mol]     -24.09448516 [kJ/mol]
      Exch-Disp20                   1.22063424 [mEh]       0.76595955 [kcal/mol]       3.20477476 [kJ/mol]
      Disp20 (SS)                  -4.58855237 [mEh]      -2.87936008 [kcal/mol]     -12.04724258 [kJ/mol]
      Disp20 (OS)                  -4.58855237 [mEh]      -2.87936008 [kcal/mol]     -12.04724258 [kJ/mol]
      Exch-Disp20 (SS)              0.79017873 [mEh]       0.49584464 [kcal/mol]       2.07461397 [kJ/mol]
      Exch-Disp20 (OS)              0.43045551 [mEh]       0.27011491 [kcal/mol]       1.13016079 [kJ/mol]

  Total HF                          4.98537310 [mEh]       3.12836885 [kcal/mol]      13.08909526 [kJ/mol]
  Total SAPT0                      -2.97109739 [mEh]      -1.86439176 [kcal/mol]      -7.80061514 [kJ/mol]

  Special recipe for scaled SAPT0 (see Manual):
    Electrostatics sSAPT0          -4.30086516 [mEh]      -2.69883363 [kcal/mol]     -11.29191992 [kJ/mol]
    Exchange sSAPT0                10.29026831 [mEh]       6.45724085 [kcal/mol]      27.01709572 [kJ/mol]
    Induction sSAPT0               -0.95389077 [mEh]      -0.59857549 [kcal/mol]      -2.50443987 [kJ/mol]
    Dispersion sSAPT0              -7.93492389 [mEh]      -4.97923992 [kcal/mol]     -20.83313981 [kJ/mol]
  Total sSAPT0                     -2.89941151 [mEh]      -1.81940819 [kcal/mol]      -7.61240387 [kJ/mol]
  --------------------------------------------------------------------------------------------------------

*** Psi4 exiting successfully. Buy a developer a beer!
