                               Psi4 1.3.2 release

  ==> Input File <==

--------------------------------------------------------------------------
# Any line starting with the # character is a comment line
#! Sample  computation

memory 22 gb

molecule Dimer {

0 1
 C                 -2.91871290   -1.23361181    0.03574523
 C                 -2.60773490   -0.05065381   -0.87281777
 C                 -2.70868990    1.27858119   -0.13513777
 H                 -2.22903890   -1.26493081    0.88071123
 H                 -3.92989990   -1.15605781    0.43788323
 H                 -2.84002290   -2.18168581   -0.49582177
 H                 -3.29500590   -0.05104181   -1.72141677
 H                 -1.60421390   -0.16346581   -1.28819977
 H                 -2.48230890    2.12090719   -0.78861377
 H                 -3.71393690    1.42250719    0.26373123
 H                 -2.01187790    1.30970119    0.70394423
--
0 1
 C                  2.91841390   -1.23379119   -0.03574923
 C                  2.60787790   -0.05075019    0.87285777
 C                  2.70886490    1.27843981    0.13510477
 H                  2.22849990   -1.26506119   -0.88052723
 H                  3.92949990   -1.15640019   -0.43817123
 H                  2.83971790   -2.18182819    0.49588177
 H                  3.29536590   -0.05121919    1.72128077
 H                  1.60444090   -0.16337419    1.28850277
 H                  2.48284990    2.12082381    0.78863277
 H                  3.71401690    1.42216881   -0.26407523
 H                  2.01180090    1.30966481   -0.70375423

units angstrom
no_reorient
symmetry c1
}

set globals{
  basis jun-cc-pvtz
}

energy('sapt0')
--------------------------------------------------------------------------

  //              Dimer HF             //
    Molecular point group: c1
  Charge       = 0
  Multiplicity = 1
  Basis Set: JUN-CC-PVTZ
    Blend: JUN-CC-PVTZ
  Basis Set: (JUN-CC-PVTZ AUX)
    Blend: JUN-CC-PVTZ-JKFIT
  @DF-RHF Final Energy:  -236.61613260145882
    Total Energy =                       -236.6161326014588440
  //            Monomer A HF           //
    Molecular point group: c1
  Multiplicity = 1
  Basis Set: JUN-CC-PVTZ
    Blend: JUN-CC-PVTZ
  Basis Set: (JUN-CC-PVTZ AUX)
    Blend: JUN-CC-PVTZ-JKFIT
  @DF-RHF Final Energy:  -118.30807823530317
    Total Energy =                       -118.3080782353031708
  //            Monomer B HF           //
    Molecular point group: c1

    Geometry (in Angstrom), charge = 0, multiplicity = 1:

       Center              X                  Y                   Z               Mass
    ------------   -----------------  -----------------  -----------------  -----------------
      Gh(C)          -2.918714194928    -1.232815548463     0.035744958726    12.000000000000
      Gh(C)          -2.607736194928    -0.049857548463    -0.872818041274    12.000000000000
      Gh(C)          -2.708691194928     1.279377451537    -0.135138041274    12.000000000000
      Gh(H)          -2.229040194928    -1.264134548463     0.880710958726     1.007825032230
      Gh(H)          -3.929901194928    -1.155261548463     0.437882958726     1.007825032230
      Gh(H)          -2.840024194928    -2.180889548463    -0.495822041274     1.007825032230
      Gh(H)          -3.295007194928    -0.050245548463    -1.721417041274     1.007825032230
      Gh(H)          -1.604215194928    -0.162669548463    -1.288200041274     1.007825032230
      Gh(H)          -2.482310194928     2.121703451537    -0.788614041274     1.007825032230
      Gh(H)          -3.713938194928     1.423303451537     0.263730958726     1.007825032230
      Gh(H)          -2.011879194928     1.310497451537     0.703943958726     1.007825032230
         C            2.918412605072    -1.232994928463    -0.035749501274    12.000000000000
         C            2.607876605072    -0.049953928463     0.872857498726    12.000000000000
         C            2.708863605072     1.279236071537     0.135104498726    12.000000000000
         H            2.228498605072    -1.264264928463    -0.880527501274     1.007825032230
         H            3.929498605072    -1.155603928463    -0.438171501274     1.007825032230
         H            2.839716605072    -2.181031928463     0.495881498726     1.007825032230
         H            3.295364605072    -0.050422928463     1.721280498726     1.007825032230
         H            1.604439605072    -0.162577928463     1.288502498726     1.007825032230
         H            2.482848605072     2.121620071537     0.788632498726     1.007825032230
         H            3.714015605072     1.422965071537    -0.264075501274     1.007825032230
         H            2.011799605072     1.310461071537    -0.703754501274     1.007825032230

  Charge       = 0
  Multiplicity = 1
  Basis Set: JUN-CC-PVTZ
    Blend: JUN-CC-PVTZ
  Basis Set: (JUN-CC-PVTZ AUX)
    Blend: JUN-CC-PVTZ-JKFIT

    Orbital Energies [Eh]
    ---------------------

    Doubly Occupied:

       1A    -11.215579     2A    -11.207858     3A    -11.207815
       4A     -1.054043     5A     -0.924838     6A     -0.799825
       7A     -0.624736     8A     -0.598265     9A     -0.549395
      10A     -0.530203    11A     -0.475537    12A     -0.474961
      13A     -0.467988

  @DF-RHF Final Energy:  -118.30807825110006

   => Energetics <=

    Nuclear Repulsion Energy =             82.8172427563989544
    One-Electron Energy =                -321.9885573765204185
    Two-Electron Energy =                 120.8632363690213936
    Total Energy =                       -118.3080782511000564

  Dipole Moment: [D]
     X:    -0.0207      Y:    -0.0071      Z:     0.0805     Total:     0.0834

    SAPT Results
  --------------------------------------------------------------------------------------------------------
    Electrostatics                  0.00929969 [mEh]       0.00583564 [kcal/mol]       0.02441633 [kJ/mol]
      Elst10,r                      0.00929969 [mEh]       0.00583564 [kcal/mol]       0.02441633 [kJ/mol]

    Exchange                        0.01656384 [mEh]       0.01039397 [kcal/mol]       0.04348837 [kJ/mol]
      Exch10                        0.01656384 [mEh]       0.01039397 [kcal/mol]       0.04348837 [kJ/mol]
      Exch10(S^2)                   0.01656373 [mEh]       0.01039390 [kcal/mol]       0.04348808 [kJ/mol]

    Induction                      -0.00197859 [mEh]      -0.00124158 [kcal/mol]      -0.00519478 [kJ/mol]
      Ind20,r                      -0.00174424 [mEh]      -0.00109453 [kcal/mol]      -0.00457951 [kJ/mol]
      Exch-Ind20,r                  0.00103128 [mEh]       0.00064714 [kcal/mol]       0.00270763 [kJ/mol]
      delta HF,r (2)               -0.00126562 [mEh]      -0.00079419 [kcal/mol]      -0.00332290 [kJ/mol]

    Dispersion                     -0.61596934 [mEh]      -0.38652659 [kcal/mol]      -1.61722727 [kJ/mol]
      Disp20                       -0.61873605 [mEh]      -0.38826273 [kcal/mol]      -1.62449128 [kJ/mol]
      Exch-Disp20                   0.00276672 [mEh]       0.00173614 [kcal/mol]       0.00726401 [kJ/mol]
      Disp20 (SS)                  -0.30936803 [mEh]      -0.19413137 [kcal/mol]      -0.81224564 [kJ/mol]
      Disp20 (OS)                  -0.30936803 [mEh]      -0.19413137 [kcal/mol]      -0.81224564 [kJ/mol]
      Exch-Disp20 (SS)              0.00202469 [mEh]       0.00127051 [kcal/mol]       0.00531582 [kJ/mol]
      Exch-Disp20 (OS)              0.00074203 [mEh]       0.00046563 [kcal/mol]       0.00194819 [kJ/mol]

  Total HF                          0.02388494 [mEh]       0.01498803 [kcal/mol]       0.06270991 [kJ/mol]
  Total SAPT0                      -0.59208439 [mEh]      -0.37153856 [kcal/mol]      -1.55451735 [kJ/mol]

  Special recipe for scaled SAPT0 (see Manual):
    Electrostatics sSAPT0           0.00929969 [mEh]       0.00583564 [kcal/mol]       0.02441633 [kJ/mol]
    Exchange sSAPT0                 0.01656384 [mEh]       0.01039397 [kcal/mol]       0.04348837 [kJ/mol]
    Induction sSAPT0               -0.00197857 [mEh]      -0.00124157 [kcal/mol]      -0.00519473 [kJ/mol]
    Dispersion sSAPT0              -0.61596928 [mEh]      -0.38652656 [kcal/mol]      -1.61722712 [kJ/mol]
  Total sSAPT0                     -0.59208432 [mEh]      -0.37153852 [kcal/mol]      -1.55451716 [kJ/mol]
  --------------------------------------------------------------------------------------------------------

*** Psi4 exiting successfully. Buy a developer a beer!
