                               Psi4 1.3.2 release

  ==> Input File <==

--------------------------------------------------------------------------
# Any line starting with the # character is a comment line
#! Sample  computation

memory 22 gb

molecule Dimer {
0 1
 H  -1.672903    1.926209   -0.266204
 C  -2.012724   -0.182929   -0.838872
 C  -1.762911    0.910418    0.158715
 O  -1.654224    0.734856    1.357774
 H  -1.162390   -0.167959   -1.529111
 C  -2.209968   -1.549883   -0.208658
 H  -1.341646   -1.829720    0.384229
 H  -3.071065   -1.545418    0.457261
 H  -2.368089   -2.307342   -0.974277
 H  -2.877778    0.118525   -1.437712

 --
0 1
 C   1.415443    1.859204   -0.223198
 C   1.720339    0.643239   -0.688235
 C   1.536075   -0.628090    0.077733
 C   2.880121   -1.270499    0.426495
 H   1.601992    2.748190   -0.810134
 H   0.976895    1.984895    0.759195
 H   2.167204    0.555581   -1.675328
 H   0.966427   -0.426821    0.987206
 H   0.952675   -1.333879   -0.520604
 H   3.460070   -1.470511   -0.475053
 H   3.465403   -0.605773    1.060916
 H   2.738748   -2.213584    0.953542

units angstrom

no_reorient
symmetry c1
}

set globals{
  basis jun-cc-pvtz
}

energy('sapt0')

--------------------------------------------------------------------------

  //              Dimer HF             //
    Molecular point group: c1
  Charge       = 0
  Multiplicity = 1
  Basis Set: JUN-CC-PVTZ
    Blend: JUN-CC-PVTZ
  Basis Set: (JUN-CC-PVTZ AUX)
    Blend: JUN-CC-PVTZ-JKFIT
  @DF-RHF Final Energy:  -348.18671431904903
    Total Energy =                       -348.1867143190490310
  //            Monomer A HF           //
    Molecular point group: c1
  Multiplicity = 1
  Basis Set: JUN-CC-PVTZ
    Blend: JUN-CC-PVTZ
  Basis Set: (JUN-CC-PVTZ AUX)
    Blend: JUN-CC-PVTZ-JKFIT
  @DF-RHF Final Energy:  -192.02429445901225
    Total Energy =                       -192.0242944590122534
  //            Monomer B HF           //
    Molecular point group: c1

    Geometry (in Angstrom), charge = 0, multiplicity = 1:

       Center              X                  Y                   Z               Mass
    ------------   -----------------  -----------------  -----------------  -----------------
      Gh(H)          -1.639625464439     1.886524923633    -0.292977856503     1.007825032230
      Gh(C)          -1.979446464439    -0.222613076367    -0.865645856503    12.000000000000
      Gh(C)          -1.729633464439     0.870733923633     0.131941143497    12.000000000000
      Gh(O)          -1.620946464439     0.695171923633     1.331000143497    15.994914619570
      Gh(H)          -1.129112464439    -0.207643076367    -1.555884856503     1.007825032230
      Gh(C)          -2.176690464439    -1.589567076367    -0.235431856503    12.000000000000
      Gh(H)          -1.308368464439    -1.869404076367     0.357455143497     1.007825032230
      Gh(H)          -3.037787464439    -1.585102076367     0.430487143497     1.007825032230
      Gh(H)          -2.334811464439    -2.347026076367    -1.001050856503     1.007825032230
      Gh(H)          -2.844500464439     0.078840923633    -1.464485856503     1.007825032230
         C            1.448720535561     1.819519923633    -0.249971856503    12.000000000000
         C            1.753616535561     0.603554923633    -0.715008856503    12.000000000000
         C            1.569352535561    -0.667774076367     0.050959143497    12.000000000000
         C            2.913398535561    -1.310183076367     0.399721143497    12.000000000000
         H            1.635269535561     2.708505923633    -0.836907856503     1.007825032230
         H            1.010172535561     1.945210923633     0.732421143497     1.007825032230
         H            2.200481535561     0.515896923633    -1.702101856503     1.007825032230
         H            0.999704535561    -0.466505076367     0.960432143497     1.007825032230
         H            0.985952535561    -1.373563076367    -0.547377856503     1.007825032230
         H            3.493347535561    -1.510195076367    -0.501826856503     1.007825032230
         H            3.498680535561    -0.645457076367     1.034142143497     1.007825032230
         H            2.772025535561    -2.253268076367     0.926768143497     1.007825032230

  Charge       = 0
  Multiplicity = 1
  Basis Set: JUN-CC-PVTZ
    Blend: JUN-CC-PVTZ
  Basis Set: (JUN-CC-PVTZ AUX)
    Blend: JUN-CC-PVTZ-JKFIT

    Orbital Energies [Eh]
    ---------------------

    Doubly Occupied:

       1A    -11.231432     2A    -11.224879     3A    -11.217741
       4A    -11.214470     5A     -1.081038     6A     -0.987555
       7A     -0.856252     8A     -0.754974     9A     -0.644804
      10A     -0.606593    11A     -0.582652    12A     -0.536908
      13A     -0.517749    14A     -0.486300    15A     -0.476875
      16A     -0.357082

  @DF-RHF Final Energy:  -156.16426540756692

   => Energetics <=

    Nuclear Repulsion Energy =            117.5799013123417041
    One-Electron Energy =                -441.9337252976398531
    Two-Electron Energy =                 168.1895585777312476
    Total Energy =                       -156.1642654075669157

  Dipole Moment: [D]
     X:     0.0761      Y:    -0.4274      Z:     0.0452     Total:     0.4364

    SAPT Results
  --------------------------------------------------------------------------------------------------------
    Electrostatics                 -4.99315302 [mEh]      -3.13325082 [kcal/mol]     -13.10952144 [kJ/mol]
      Elst10,r                     -4.99315302 [mEh]      -3.13325082 [kcal/mol]     -13.10952144 [kJ/mol]

    Exchange                        8.06354673 [mEh]       5.05995196 [kcal/mol]      21.17083901 [kJ/mol]
      Exch10                        8.06354673 [mEh]       5.05995196 [kcal/mol]      21.17083901 [kJ/mol]
      Exch10(S^2)                   8.03988130 [mEh]       5.04510168 [kcal/mol]      21.10870544 [kJ/mol]

    Induction                      -1.22484618 [mEh]      -0.76860258 [kcal/mol]      -3.21583321 [kJ/mol]
      Ind20,r                      -3.05262003 [mEh]      -1.91554799 [kcal/mol]      -8.01465278 [kJ/mol]
      Exch-Ind20,r                  2.47079048 [mEh]       1.55044444 [kcal/mol]       6.48705952 [kJ/mol]
      delta HF,r (2)               -0.64301663 [mEh]      -0.40349903 [kcal/mol]      -1.68823994 [kJ/mol]

    Dispersion                     -7.99189452 [mEh]      -5.01498953 [kcal/mol]     -20.98271618 [kJ/mol]
      Disp20                       -8.92298362 [mEh]      -5.59925676 [kcal/mol]     -23.42729027 [kJ/mol]
      Exch-Disp20                   0.93108910 [mEh]       0.58426723 [kcal/mol]       2.44457409 [kJ/mol]
      Disp20 (SS)                  -4.46149181 [mEh]      -2.79962838 [kcal/mol]     -11.71364514 [kJ/mol]
      Disp20 (OS)                  -4.46149181 [mEh]      -2.79962838 [kcal/mol]     -11.71364514 [kJ/mol]
      Exch-Disp20 (SS)              0.60811020 [mEh]       0.38159491 [kcal/mol]       1.59659311 [kJ/mol]
      Exch-Disp20 (OS)              0.32297890 [mEh]       0.20267232 [kcal/mol]       0.84798098 [kJ/mol]

  Total HF                          1.84554753 [mEh]       1.15809856 [kcal/mol]       4.84548437 [kJ/mol]
  Total SAPT0                      -6.14634699 [mEh]      -3.85689097 [kcal/mol]     -16.13723181 [kJ/mol]

  Special recipe for scaled SAPT0 (see Manual):
    Electrostatics sSAPT0          -4.99315302 [mEh]      -3.13325082 [kcal/mol]     -13.10952144 [kJ/mol]
    Exchange sSAPT0                 8.06354673 [mEh]       5.05995196 [kcal/mol]      21.17083901 [kJ/mol]
    Induction sSAPT0               -1.20296355 [mEh]      -0.75487102 [kcal/mol]      -3.15838035 [kJ/mol]
    Dispersion sSAPT0              -7.98364830 [mEh]      -5.00981495 [kcal/mol]     -20.96106573 [kJ/mol]
  Total sSAPT0                     -6.11621814 [mEh]      -3.83798483 [kcal/mol]     -16.05812851 [kJ/mol]
  --------------------------------------------------------------------------------------------------------

*** Psi4 exiting successfully. Buy a developer a beer!
