                               Psi4 1.3.2 release

  ==> Input File <==

--------------------------------------------------------------------------
# Any line starting with the # character is a comment line
#! Sample  computation

memory 22 gb

molecule Dimer {
0 1
 H   0.836434   -2.512755   -0.585550
 C   1.684872   -0.470360   -0.614737
 C   1.117218   -1.674431    0.077658
 O   0.952977   -1.763390    1.280061
 H   0.905680   -0.112735   -1.298805
 C   2.147817    0.631978    0.321254
 H   1.330725    0.895443    0.993162
 H   2.948974    0.249211    0.955441
 H   2.499939   -0.814957   -1.260811
 C   2.620491    1.859675   -0.446343
 H   3.447650    1.611437   -1.112638
 H   1.815045    2.269599   -1.057773
 H   2.959430    2.643904    0.229374

 --
0 1
 C   -2.150244   -1.526857   -0.631214
 C   -2.073046   -0.205343   -0.819151
 C   -1.629287    0.774224    0.220199
 C   -2.777517    1.686722    0.655788
 H   -2.510261   -2.184848   -1.410283
 H   -1.857847   -1.972704    0.311577
 H   -2.383278    0.207990   -1.775502
 H   -1.227973    0.235406    1.081007
 H   -0.820635    1.392362   -0.181120
 H   -3.189972    2.225184   -0.198025
 H   -3.580094    1.100476    1.101879
 H   -2.439447    2.420456    1.386857

units angstrom

no_reorient
symmetry c1
}

set globals{
  basis jun-cc-pvtz
}

energy('sapt0')

--------------------------------------------------------------------------

  //              Dimer HF             //
    Molecular point group: c1
  Charge       = 0
  Multiplicity = 1
  Basis Set: JUN-CC-PVTZ
    Blend: JUN-CC-PVTZ
  Basis Set: (JUN-CC-PVTZ AUX)
    Blend: JUN-CC-PVTZ-JKFIT
  @DF-RHF Final Energy:  -387.23392201599074
    Total Energy =                       -387.2339220159907427
  //            Monomer A HF           //
    Molecular point group: c1
  Multiplicity = 1
  Basis Set: JUN-CC-PVTZ
    Blend: JUN-CC-PVTZ
  Basis Set: (JUN-CC-PVTZ AUX)
    Blend: JUN-CC-PVTZ-JKFIT
  @DF-RHF Final Energy:  -231.07184651079564
    Total Energy =                       -231.0718465107956376
  //            Monomer B HF           //
    Molecular point group: c1

    Geometry (in Angstrom), charge = 0, multiplicity = 1:

       Center              X                  Y                   Z               Mass
    ------------   -----------------  -----------------  -----------------  -----------------
      Gh(H)           0.826670504607    -2.453555717815    -0.607346954684     1.007825032230
      Gh(C)           1.675108504607    -0.411160717815    -0.636533954684    12.000000000000
      Gh(C)           1.107454504607    -1.615231717815     0.055861045316    12.000000000000
      Gh(O)           0.943213504607    -1.704190717815     1.258264045316    15.994914619570
      Gh(H)           0.895916504607    -0.053535717815    -1.320601954684     1.007825032230
      Gh(C)           2.138053504607     0.691177282185     0.299457045316    12.000000000000
      Gh(H)           1.320961504607     0.954642282185     0.971365045316     1.007825032230
      Gh(H)           2.939210504607     0.308410282185     0.933644045316     1.007825032230
      Gh(H)           2.490175504607    -0.755757717815    -1.282607954684     1.007825032230
      Gh(C)           2.610727504607     1.918874282185    -0.468139954684    12.000000000000
      Gh(H)           3.437886504607     1.670636282185    -1.134434954684     1.007825032230
      Gh(H)           1.805281504607     2.328798282185    -1.079569954684     1.007825032230
      Gh(H)           2.949666504607     2.703103282185     0.207577045316     1.007825032230
         C           -2.160007495393    -1.467657717815    -0.653010954684    12.000000000000
         C           -2.082809495393    -0.146143717815    -0.840947954684    12.000000000000
         C           -1.639050495393     0.833423282185     0.198402045316    12.000000000000
         C           -2.787280495393     1.745921282185     0.633991045316    12.000000000000
         H           -2.520024495393    -2.125648717815    -1.432079954684     1.007825032230
         H           -1.867610495393    -1.913504717815     0.289780045316     1.007825032230
         H           -2.393041495393     0.267189282185    -1.797298954684     1.007825032230
         H           -1.237736495393     0.294605282185     1.059210045316     1.007825032230
         H           -0.830398495393     1.451561282185    -0.202916954684     1.007825032230
         H           -3.199735495393     2.284383282185    -0.219821954684     1.007825032230
         H           -3.589857495393     1.159675282185     1.080082045316     1.007825032230
         H           -2.449210495393     2.479655282185     1.365060045316     1.007825032230

  Charge       = 0
  Multiplicity = 1
  Basis Set: JUN-CC-PVTZ
    Blend: JUN-CC-PVTZ
  Basis Set: (JUN-CC-PVTZ AUX)
    Blend: JUN-CC-PVTZ-JKFIT

    Orbital Energies [Eh]
    ---------------------

    Doubly Occupied:

       1A    -11.231429     2A    -11.224903     3A    -11.217742
       4A    -11.214461     5A     -1.081037     6A     -0.987583
       7A     -0.856225     8A     -0.755001     9A     -0.644755
      10A     -0.606598    11A     -0.582751    12A     -0.536884
      13A     -0.517693    14A     -0.486301    15A     -0.476885
      16A     -0.357101

  @DF-RHF Final Energy:  -156.16428227527751

   => Energetics <=

    Nuclear Repulsion Energy =            117.5747670764485093
    One-Electron Energy =                -441.9233970322907226
    Two-Electron Energy =                 168.1843476805647128
    Total Energy =                       -156.1642822752775146

  Dipole Moment: [D]
     X:     0.0378      Y:     0.4118      Z:     0.1378     Total:     0.4358

    SAPT Results
  --------------------------------------------------------------------------------------------------------
    Electrostatics                 -5.03353995 [mEh]      -3.15859400 [kcal/mol]     -13.21555731 [kJ/mol]
      Elst10,r                     -5.03353995 [mEh]      -3.15859400 [kcal/mol]     -13.21555731 [kJ/mol]

    Exchange                        8.47436732 [mEh]       5.31774578 [kcal/mol]      22.24944833 [kJ/mol]
      Exch10                        8.47436732 [mEh]       5.31774578 [kcal/mol]      22.24944833 [kJ/mol]
      Exch10(S^2)                   8.45084518 [mEh]       5.30298541 [kcal/mol]      22.18769097 [kJ/mol]

    Induction                      -1.23405729 [mEh]      -0.77438264 [kcal/mol]      -3.24001696 [kJ/mol]
      Ind20,r                      -3.08664218 [mEh]      -1.93689721 [kcal/mol]      -8.10397793 [kJ/mol]
      Exch-Ind20,r                  2.50671036 [mEh]       1.57298450 [kcal/mol]       6.58136715 [kJ/mol]
      delta HF,r (2)               -0.65412547 [mEh]      -0.41046993 [kcal/mol]      -1.71740618 [kJ/mol]

    Dispersion                     -8.76008903 [mEh]      -5.49703886 [kcal/mol]     -22.99961058 [kJ/mol]
      Disp20                       -9.75646335 [mEh]      -6.12227318 [kcal/mol]     -25.61559100 [kJ/mol]
      Exch-Disp20                   0.99637432 [mEh]       0.62523433 [kcal/mol]       2.61598042 [kJ/mol]
      Disp20 (SS)                  -4.87823168 [mEh]      -3.06113659 [kcal/mol]     -12.80779550 [kJ/mol]
      Disp20 (OS)                  -4.87823168 [mEh]      -3.06113659 [kcal/mol]     -12.80779550 [kJ/mol]
      Exch-Disp20 (SS)              0.65104953 [mEh]       0.40853975 [kcal/mol]       1.70933030 [kJ/mol]
      Exch-Disp20 (OS)              0.34532479 [mEh]       0.21669458 [kcal/mol]       0.90665012 [kJ/mol]

  Total HF                          2.20677008 [mEh]       1.38476913 [kcal/mol]       5.79387405 [kJ/mol]
  Total SAPT0                      -6.55331895 [mEh]      -4.11226972 [kcal/mol]     -17.20573653 [kJ/mol]

  Special recipe for scaled SAPT0 (see Manual):
    Electrostatics sSAPT0          -5.03353995 [mEh]      -3.15859400 [kcal/mol]     -13.21555731 [kJ/mol]
    Exchange sSAPT0                 8.47436732 [mEh]       5.31774578 [kcal/mol]      22.24944833 [kJ/mol]
    Induction sSAPT0               -1.21306739 [mEh]      -0.76121128 [kcal/mol]      -3.18490800 [kJ/mol]
    Dispersion sSAPT0              -8.75174591 [mEh]      -5.49180347 [kcal/mol]     -22.97770571 [kJ/mol]
  Total sSAPT0                     -6.52398593 [mEh]      -4.09386298 [kcal/mol]     -17.12872270 [kJ/mol]
  --------------------------------------------------------------------------------------------------------

*** Psi4 exiting successfully. Buy a developer a beer!
