                               Psi4 1.3.2 release

  ==> Input File <==

--------------------------------------------------------------------------
# Any line starting with the # character is a comment line
#! Sample  computation

memory 22 gb

molecule Dimer {
0 1
 H   -2.302070    0.711094   -1.097903
 C   -2.238326    0.200976    1.051749
 C   -2.095516   -0.121782   -0.402611
 O   -1.774794   -1.212476   -0.835910
 H   -2.028463   -0.672787    1.662270
 H   -1.550906    1.011612    1.299106
 H   -3.249825    0.562290    1.244604

 --
0 1
 C   0.899455    1.972561   -0.252672
 C   1.032228    0.670328   -0.524799
 C   1.350021   -0.384523    0.484892
 C   2.675980   -1.079451    0.171600
 H   0.688385    2.693625   -1.030360
 H   1.009206    2.343883    0.759307
 H   0.921389    0.333723   -1.552042
 H   1.385989    0.062954    1.480764
 H   0.550465   -1.130429    0.486043
 H   2.647192   -1.530843   -0.820317
 H   3.499221   -0.365924    0.193135
 H   2.884722   -1.868044    0.893724

units angstrom

no_reorient
symmetry c1
}

set globals{
  basis jun-cc-pvtz
}

energy('sapt0')

--------------------------------------------------------------------------

  //              Dimer HF             //
    Molecular point group: c1
  Charge       = 0
  Multiplicity = 1
  Basis Set: JUN-CC-PVTZ
    Blend: JUN-CC-PVTZ
  Basis Set: (JUN-CC-PVTZ AUX)
    Blend: JUN-CC-PVTZ-JKFIT
  @DF-RHF Final Energy:  -309.13899031211474
    Total Energy =                       -309.1389903121147427
  //            Monomer A HF           //
    Molecular point group: c1
  Multiplicity = 1
  Basis Set: JUN-CC-PVTZ
    Blend: JUN-CC-PVTZ
  Basis Set: (JUN-CC-PVTZ AUX)
    Blend: JUN-CC-PVTZ-JKFIT
  @DF-RHF Final Energy:  -152.97574642984881
    Total Energy =                       -152.9757464298488117
  //            Monomer B HF           //
    Molecular point group: c1

    Geometry (in Angstrom), charge = 0, multiplicity = 1:

       Center              X                  Y                   Z               Mass
    ------------   -----------------  -----------------  -----------------  -----------------
      Gh(H)          -2.257995079223     0.732356668049    -1.063068547959     1.007825032230
      Gh(C)          -2.194251079223     0.222238668049     1.086583452041    12.000000000000
      Gh(C)          -2.051441079223    -0.100519331951    -0.367776547959    12.000000000000
      Gh(O)          -1.730719079223    -1.191213331951    -0.801075547959    15.994914619570
      Gh(H)          -1.984388079223    -0.651524331951     1.697104452041     1.007825032230
      Gh(H)          -1.506831079223     1.032874668049     1.333940452041     1.007825032230
      Gh(H)          -3.205750079223     0.583552668049     1.279438452041     1.007825032230
         C            0.943529920777     1.993823668049    -0.217837547959    12.000000000000
         C            1.076302920777     0.691590668049    -0.489964547959    12.000000000000
         C            1.394095920777    -0.363260331951     0.519726452041    12.000000000000
         C            2.720054920777    -1.058188331951     0.206434452041    12.000000000000
         H            0.732459920777     2.714887668049    -0.995525547959     1.007825032230
         H            1.053280920777     2.365145668049     0.794141452041     1.007825032230
         H            0.965463920777     0.354985668049    -1.517207547959     1.007825032230
         H            1.430063920777     0.084216668049     1.515598452041     1.007825032230
         H            0.594539920777    -1.109166331951     0.520877452041     1.007825032230
         H            2.691266920777    -1.509580331951    -0.785482547959     1.007825032230
         H            3.543295920777    -0.344661331951     0.227969452041     1.007825032230
         H            2.928796920777    -1.846781331951     0.928558452041     1.007825032230

  Charge       = 0
  Multiplicity = 1
  Basis Set: JUN-CC-PVTZ
    Blend: JUN-CC-PVTZ
  Basis Set: (JUN-CC-PVTZ AUX)
    Blend: JUN-CC-PVTZ-JKFIT

    Orbital Energies [Eh]
    ---------------------

    Doubly Occupied:

       1A    -11.231291     2A    -11.224849     3A    -11.217681
       4A    -11.214523     5A     -1.081216     6A     -0.987924
       7A     -0.856183     8A     -0.755406     9A     -0.643923
      10A     -0.606670    11A     -0.585085    12A     -0.535465
      13A     -0.517616    14A     -0.487209    15A     -0.476816
      16A     -0.357002

  @DF-RHF Final Energy:  -156.16441334898539

   => Energetics <=

    Nuclear Repulsion Energy =            117.5028746135385518
    One-Electron Energy =                -441.7768555854179908
    Two-Electron Energy =                 168.1095676228940476
    Total Energy =                       -156.1644133489853914

  Dipole Moment: [D]
     X:     0.1030      Y:    -0.4184      Z:     0.0969     Total:     0.4416

    SAPT Results
  --------------------------------------------------------------------------------------------------------
    Electrostatics                 -5.76029725 [mEh]      -3.61464110 [kcal/mol]     -15.12365835 [kJ/mol]
      Elst10,r                     -5.76029725 [mEh]      -3.61464110 [kcal/mol]     -15.12365835 [kJ/mol]

    Exchange                        8.40113912 [mEh]       5.27179439 [kcal/mol]      22.05718773 [kJ/mol]
      Exch10                        8.40113912 [mEh]       5.27179439 [kcal/mol]      22.05718773 [kJ/mol]
      Exch10(S^2)                   8.36165559 [mEh]       5.24701810 [kcal/mol]      21.95352374 [kJ/mol]

    Induction                      -1.47137515 [mEh]      -0.92330185 [kcal/mol]      -3.86309493 [kJ/mol]
      Ind20,r                      -3.72569064 [mEh]      -2.33790617 [kcal/mol]      -9.78179942 [kJ/mol]
      Exch-Ind20,r                  2.96708020 [mEh]       1.86187093 [kcal/mol]       7.79006799 [kJ/mol]
      delta HF,r (2)               -0.71276471 [mEh]      -0.44726661 [kcal/mol]      -1.87136349 [kJ/mol]

    Dispersion                     -7.44628294 [mEh]      -4.67261309 [kcal/mol]     -19.55021315 [kJ/mol]
      Disp20                       -8.42586949 [mEh]      -5.28731293 [kcal/mol]     -22.12211730 [kJ/mol]
      Exch-Disp20                   0.97958656 [mEh]       0.61469984 [kcal/mol]       2.57190415 [kJ/mol]
      Disp20 (SS)                  -4.21293475 [mEh]      -2.64365647 [kcal/mol]     -11.06105865 [kJ/mol]
      Disp20 (OS)                  -4.21293475 [mEh]      -2.64365647 [kcal/mol]     -11.06105865 [kJ/mol]
      Exch-Disp20 (SS)              0.63303670 [mEh]       0.39723653 [kcal/mol]       1.66203763 [kJ/mol]
      Exch-Disp20 (OS)              0.34654985 [mEh]       0.21746332 [kcal/mol]       0.90986652 [kJ/mol]

  Total HF                          1.16946672 [mEh]       0.73385145 [kcal/mol]       3.07043445 [kJ/mol]
  Total SAPT0                      -6.27681622 [mEh]      -3.93876164 [kcal/mol]     -16.47977871 [kJ/mol]

  Special recipe for scaled SAPT0 (see Manual):
    Electrostatics sSAPT0          -5.76029725 [mEh]      -3.61464110 [kcal/mol]     -15.12365835 [kJ/mol]
    Exchange sSAPT0                 8.40113912 [mEh]       5.27179439 [kcal/mol]      22.05718773 [kJ/mol]
    Induction sSAPT0               -1.42914493 [mEh]      -0.89680198 [kcal/mol]      -3.75221950 [kJ/mol]
    Dispersion sSAPT0              -7.43234056 [mEh]      -4.66386411 [kcal/mol]     -19.51360744 [kJ/mol]
  Total sSAPT0                     -6.22064362 [mEh]      -3.90351280 [kcal/mol]     -16.33229757 [kJ/mol]
  --------------------------------------------------------------------------------------------------------

*** Psi4 exiting successfully. Buy a developer a beer!
