                               Psi4 1.3.2 release

  ==> Input File <==

--------------------------------------------------------------------------
# Any line starting with the # character is a comment line
#! Sample  computation

memory 22 gb

molecule Dimer {
0 1
 H  -0.688092   -1.806680    1.082224
 C  -1.307485    0.298887    0.812393
 C  -0.881575   -1.045987    0.302503
 O  -0.744074   -1.328588   -0.872488
 H  -0.521109    0.635197    1.495549
 C  -1.569713    1.313186   -0.285075
 H  -0.667699    1.484924   -0.869267
 H  -2.339659    0.955289   -0.966044
 H  -1.893507    2.261955    0.138743
 H  -2.190852    0.136511    1.438556

 --
0 1
 C   2.465900   -0.108207    0.534697
 H   2.144332   -1.129011    0.692322
 H   3.075414    0.346117    1.303720
 C   2.133500    0.555227   -0.574110
 H   2.465366    1.571416   -0.738465
 H   1.524633    0.094356   -1.339881

units angstrom

no_reorient
symmetry c1
}

set globals{
  basis jun-cc-pvtz
}

energy('sapt0')

--------------------------------------------------------------------------

  //              Dimer HF             //
    Molecular point group: c1
  Charge       = 0
  Multiplicity = 1
  Basis Set: JUN-CC-PVTZ
    Blend: JUN-CC-PVTZ
  Basis Set: (JUN-CC-PVTZ AUX)
    Blend: JUN-CC-PVTZ-JKFIT
  @DF-RHF Final Energy:  -270.08731981482799
    Total Energy =                       -270.0873198148279926
  //            Monomer A HF           //
    Molecular point group: c1
  Multiplicity = 1
  Basis Set: JUN-CC-PVTZ
    Blend: JUN-CC-PVTZ
  Basis Set: (JUN-CC-PVTZ AUX)
    Blend: JUN-CC-PVTZ-JKFIT
  @DF-RHF Final Energy:  -192.02433811969570
    Total Energy =                       -192.0243381196956989
  //            Monomer B HF           //
    Molecular point group: c1

    Geometry (in Angstrom), charge = 0, multiplicity = 1:

       Center              X                  Y                   Z               Mass
    ------------   -----------------  -----------------  -----------------  -----------------
      Gh(H)          -0.677659741576    -1.754309424898     1.107963844642     1.007825032230
      Gh(C)          -1.297052741576     0.351257575102     0.838132844642    12.000000000000
      Gh(C)          -0.871142741576    -0.993616424898     0.328242844642    12.000000000000
      Gh(O)          -0.733641741576    -1.276217424898    -0.846748155358    15.994914619570
      Gh(H)          -0.510676741576     0.687567575102     1.521288844642     1.007825032230
      Gh(C)          -1.559280741576     1.365556575102    -0.259335155358    12.000000000000
      Gh(H)          -0.657266741576     1.537294575102    -0.843527155358     1.007825032230
      Gh(H)          -2.329226741576     1.007659575102    -0.940304155358     1.007825032230
      Gh(H)          -1.883074741576     2.314325575102     0.164482844642     1.007825032230
      Gh(H)          -2.180419741576     0.188881575102     1.464295844642     1.007825032230
         C            2.476332258424    -0.055836424898     0.560436844642    12.000000000000
         H            2.154764258424    -1.076640424898     0.718061844642     1.007825032230
         H            3.085846258424     0.398487575102     1.329459844642     1.007825032230
         C            2.143932258424     0.607597575102    -0.548370155358    12.000000000000
         H            2.475798258424     1.623786575102    -0.712725155358     1.007825032230
         H            1.535065258424     0.146726575102    -1.314141155358     1.007825032230

  Charge       = 0
  Multiplicity = 1
  Basis Set: JUN-CC-PVTZ
    Blend: JUN-CC-PVTZ
  Basis Set: (JUN-CC-PVTZ AUX)
    Blend: JUN-CC-PVTZ-JKFIT

    Orbital Energies [Eh]
    ---------------------

    Doubly Occupied:

       1A    -11.231639     2A    -11.229935     3A     -1.034170
       4A     -0.793052     5A     -0.645027     6A     -0.586824
       7A     -0.508978     8A     -0.376731

  @DF-RHF Final Energy:   -78.06435580038422

   => Energetics <=

    Nuclear Repulsion Energy =             33.3924470342276649
    One-Electron Energy =                -170.1008908701384144
    Two-Electron Energy =                  58.6440880355265222
    Total Energy =                        -78.0643558003842202

  Dipole Moment: [D]
     X:     0.0102      Y:    -0.0034      Z:    -0.0029     Total:     0.0112

    SAPT Results
  --------------------------------------------------------------------------------------------------------
    Electrostatics                 -4.37093466 [mEh]      -2.74280291 [kcal/mol]     -11.47588738 [kJ/mol]
      Elst10,r                     -4.37093466 [mEh]      -2.74280291 [kcal/mol]     -11.47588738 [kJ/mol]

    Exchange                        6.76434181 [mEh]       4.24468857 [kcal/mol]      17.75977699 [kJ/mol]
      Exch10                        6.76434181 [mEh]       4.24468857 [kcal/mol]      17.75977699 [kJ/mol]
      Exch10(S^2)                   6.73590900 [mEh]       4.22684671 [kcal/mol]      17.68512663 [kJ/mol]

    Induction                      -1.01930190 [mEh]      -0.63962160 [kcal/mol]      -2.67617677 [kJ/mol]
      Ind20,r                      -2.93125867 [mEh]      -1.83939259 [kcal/mol]      -7.69601858 [kJ/mol]
      Exch-Ind20,r                  2.44592437 [mEh]       1.53484071 [kcal/mol]       6.42177354 [kJ/mol]
      delta HF,r (2)               -0.53396760 [mEh]      -0.33506973 [kcal/mol]      -1.40193173 [kJ/mol]

    Dispersion                     -6.04141936 [mEh]      -3.79104788 [kcal/mol]     -15.86174435 [kJ/mol]
      Disp20                       -6.85657357 [mEh]      -4.30256487 [kcal/mol]     -18.00193144 [kJ/mol]
      Exch-Disp20                   0.81515421 [mEh]       0.51151699 [kcal/mol]       2.14018708 [kJ/mol]
      Disp20 (SS)                  -3.42828679 [mEh]      -2.15128244 [kcal/mol]      -9.00096572 [kJ/mol]
      Disp20 (OS)                  -3.42828679 [mEh]      -2.15128244 [kcal/mol]      -9.00096572 [kJ/mol]
      Exch-Disp20 (SS)              0.52225742 [mEh]       0.32772148 [kcal/mol]       1.37118666 [kJ/mol]
      Exch-Disp20 (OS)              0.29289679 [mEh]       0.18379551 [kcal/mol]       0.76900042 [kJ/mol]

  Total HF                          1.37410525 [mEh]       0.86226406 [kcal/mol]       3.60771284 [kJ/mol]
  Total SAPT0                      -4.66731411 [mEh]      -2.92878382 [kcal/mol]     -12.25403151 [kJ/mol]

  Special recipe for scaled SAPT0 (see Manual):
    Electrostatics sSAPT0          -4.37093466 [mEh]      -2.74280291 [kcal/mol]     -11.47588738 [kJ/mol]
    Exchange sSAPT0                 6.76434181 [mEh]       4.24468857 [kcal/mol]      17.75977699 [kJ/mol]
    Induction sSAPT0               -0.98819764 [mEh]      -0.62010338 [kcal/mol]      -2.59451254 [kJ/mol]
    Dispersion sSAPT0              -6.03105323 [mEh]      -3.78454304 [kcal/mol]     -15.83452808 [kJ/mol]
  Total sSAPT0                     -4.62584372 [mEh]      -2.90276076 [kcal/mol]     -12.14515101 [kJ/mol]
  --------------------------------------------------------------------------------------------------------

*** Psi4 exiting successfully. Buy a developer a beer!
