                               Psi4 1.3.2 release

  ==> Input File <==

--------------------------------------------------------------------------
# Any line starting with the # character is a comment line
#! Sample  computation

memory 22 gb

molecule Dimer {
0 1
 H  -1.154971   -0.646182    1.420312
 C  -1.607485    1.087141    0.126697
 C  -1.281191   -0.354273    0.361979
 O  -1.150893   -1.183955   -0.517516
 H  -1.721433    1.287291   -0.934916
 H  -2.524443    1.342383    0.660240
 H  -0.807834    1.701651    0.543185

 --
0 1
 C   2.162739   -0.327186    0.479931
 H   2.893965   -0.091830    1.241003
 H   1.631708   -1.265195    0.567384
 C   1.929607    0.502464   -0.538603
 H   1.201840    0.258365   -1.300548
 H   2.466290    1.436282   -0.636550

units angstrom

no_reorient
symmetry c1
}

set globals{
  basis jun-cc-pvtz
}

energy('sapt0')

--------------------------------------------------------------------------

  //              Dimer HF             //
    Molecular point group: c1
  Charge       = 0
  Multiplicity = 1
  Basis Set: JUN-CC-PVTZ
    Blend: JUN-CC-PVTZ
  Basis Set: (JUN-CC-PVTZ AUX)
    Blend: JUN-CC-PVTZ-JKFIT
  @DF-RHF Final Energy:  -231.03958014413220
    Total Energy =                       -231.0395801441322021
  //            Monomer A HF           //
    Molecular point group: c1
  Multiplicity = 1
  Basis Set: JUN-CC-PVTZ
    Blend: JUN-CC-PVTZ
  Basis Set: (JUN-CC-PVTZ AUX)
    Blend: JUN-CC-PVTZ-JKFIT
  @DF-RHF Final Energy:  -152.97577722253436
    Total Energy =                       -152.9757772225343615
  //            Monomer B HF           //
    Molecular point group: c1

    Geometry (in Angstrom), charge = 0, multiplicity = 1:

       Center              X                  Y                   Z               Mass
    ------------   -----------------  -----------------  -----------------  -----------------
      Gh(H)          -1.127718608199    -0.590875292859     1.441756790677     1.007825032230
      Gh(C)          -1.580232608199     1.142447707141     0.148141790677    12.000000000000
      Gh(C)          -1.253938608199    -0.298966292859     0.383423790677    12.000000000000
      Gh(O)          -1.123640608199    -1.128648292859    -0.496071209323    15.994914619570
      Gh(H)          -1.694180608199     1.342597707141    -0.913471209323     1.007825032230
      Gh(H)          -2.497190608199     1.397689707141     0.681684790677     1.007825032230
      Gh(H)          -0.780581608199     1.756957707141     0.564629790677     1.007825032230
         C            2.189991391801    -0.271879292859     0.501375790677    12.000000000000
         H            2.921217391801    -0.036523292859     1.262447790677     1.007825032230
         H            1.658960391801    -1.209888292859     0.588828790677     1.007825032230
         C            1.956859391801     0.557770707141    -0.517158209323    12.000000000000
         H            1.229092391801     0.313671707141    -1.279103209323     1.007825032230
         H            2.493542391801     1.491588707141    -0.615105209323     1.007825032230

  Charge       = 0
  Multiplicity = 1
  Basis Set: JUN-CC-PVTZ
    Blend: JUN-CC-PVTZ
  Basis Set: (JUN-CC-PVTZ AUX)
    Blend: JUN-CC-PVTZ-JKFIT

    Orbital Energies [Eh]
    ---------------------

    Doubly Occupied:

       1A    -11.231610     2A    -11.229905     3A     -1.034240
       4A     -0.792970     5A     -0.645261     6A     -0.586617
       7A     -0.509138     8A     -0.376722

  @DF-RHF Final Energy:   -78.06433487992228

   => Energetics <=

    Nuclear Repulsion Energy =             33.3950441015362145
    One-Electron Energy =                -170.1058332739181083
    Two-Electron Energy =                  58.6464542924596159
    Total Energy =                        -78.0643348799222849

  Dipole Moment: [D]
     X:     0.0110      Y:    -0.0056      Z:    -0.0064     Total:     0.0139

    SAPT Results
  --------------------------------------------------------------------------------------------------------
    Electrostatics                 -4.32009505 [mEh]      -2.71090057 [kcal/mol]     -11.34240799 [kJ/mol]
      Elst10,r                     -4.32009505 [mEh]      -2.71090057 [kcal/mol]     -11.34240799 [kJ/mol]

    Exchange                        5.69297709 [mEh]       3.57239706 [kcal/mol]      14.94690928 [kJ/mol]
      Exch10                        5.69297709 [mEh]       3.57239706 [kcal/mol]      14.94690928 [kJ/mol]
      Exch10(S^2)                   5.67089786 [mEh]       3.55854213 [kcal/mol]      14.88894027 [kJ/mol]

    Induction                      -0.84092371 [mEh]      -0.52768760 [kcal/mol]      -2.20784490 [kJ/mol]
      Ind20,r                      -2.59735354 [mEh]      -1.62986395 [kcal/mol]      -6.81935078 [kJ/mol]
      Exch-Ind20,r                  2.15788215 [mEh]       1.35409149 [kcal/mol]       5.66551880 [kJ/mol]
      delta HF,r (2)               -0.40145232 [mEh]      -0.25191513 [kcal/mol]      -1.05401292 [kJ/mol]

    Dispersion                     -4.83955536 [mEh]      -3.03686683 [kcal/mol]     -12.70625084 [kJ/mol]
      Disp20                       -5.49249859 [mEh]      -3.44659490 [kcal/mol]     -14.42055306 [kJ/mol]
      Exch-Disp20                   0.65294323 [mEh]       0.40972806 [kcal/mol]       1.71430222 [kJ/mol]
      Disp20 (SS)                  -2.74624929 [mEh]      -1.72329745 [kcal/mol]      -7.21027653 [kJ/mol]
      Disp20 (OS)                  -2.74624929 [mEh]      -1.72329745 [kcal/mol]      -7.21027653 [kJ/mol]
      Exch-Disp20 (SS)              0.42466893 [mEh]       0.26648378 [kcal/mol]       1.11496813 [kJ/mol]
      Exch-Disp20 (OS)              0.22827430 [mEh]       0.14324429 [kcal/mol]       0.59933409 [kJ/mol]

  Total HF                          0.53195832 [mEh]       0.33380889 [kcal/mol]       1.39665639 [kJ/mol]
  Total SAPT0                      -4.30759703 [mEh]      -2.70305795 [kcal/mol]     -11.30959445 [kJ/mol]

  Special recipe for scaled SAPT0 (see Manual):
    Electrostatics sSAPT0          -4.32009505 [mEh]      -2.71090057 [kcal/mol]     -11.34240799 [kJ/mol]
    Exchange sSAPT0                 5.69297709 [mEh]       3.57239706 [kcal/mol]      14.94690928 [kJ/mol]
    Induction sSAPT0               -0.81562078 [mEh]      -0.51180977 [kcal/mol]      -2.14141206 [kJ/mol]
    Dispersion sSAPT0              -4.83189906 [mEh]      -3.03206244 [kcal/mol]     -12.68614924 [kJ/mol]
  Total sSAPT0                     -4.27463780 [mEh]      -2.68237572 [kcal/mol]     -11.22306001 [kJ/mol]
  --------------------------------------------------------------------------------------------------------

*** Psi4 exiting successfully. Buy a developer a beer!
