                               Psi4 1.3.2 release

  ==> Input File <==

--------------------------------------------------------------------------
# Any line starting with the # character is a comment line
#! Sample  computation

memory 22 gb

molecule Dimer {
0 1
 H   0.524586    2.136419    1.215209
 C  -0.892495    0.504879    0.745007
 C   0.082492    1.579608    0.367061
 O   0.400949    1.855848   -0.774117
 H  -1.664107    0.970576    1.369050
 C  -1.502195   -0.232987   -0.432491
 H  -2.013006    0.482289   -1.078790
 H  -0.699649   -0.666355   -1.030473
 H  -0.356985   -0.184484    1.408143
 C  -2.465855   -1.320432    0.024435
 H  -1.954464   -2.055508    0.647281
 H  -3.283041   -0.898596    0.611064
 H  -2.901031   -1.846121   -0.824530

 --
0 1
 C   2.597854   -0.855072    0.585677
 H   2.850874   -1.633601    1.292246
 H   2.753253    0.169284    0.897154
 C   2.126423   -1.141967   -0.629123
 H   1.875851   -0.358604   -1.331313
 H   1.982785   -2.166252   -0.945496

units angstrom

no_reorient
symmetry c1
}

set globals{
  basis jun-cc-pvtz
}

energy('sapt0')

--------------------------------------------------------------------------

  //              Dimer HF             //
    Molecular point group: c1
  Charge       = 0
  Multiplicity = 1
  Basis Set: JUN-CC-PVTZ
    Blend: JUN-CC-PVTZ
  Basis Set: (JUN-CC-PVTZ AUX)
    Blend: JUN-CC-PVTZ-JKFIT
  @DF-RHF Final Energy:  -309.13466780774769
    Total Energy =                       -309.1346678077476895
  //            Monomer A HF           //
    Molecular point group: c1
  Multiplicity = 1
  Basis Set: JUN-CC-PVTZ
    Blend: JUN-CC-PVTZ
  Basis Set: (JUN-CC-PVTZ AUX)
    Blend: JUN-CC-PVTZ-JKFIT
  @DF-RHF Final Energy:  -231.07191441657704
    Total Energy =                       -231.0719144165770444
  //            Monomer B HF           //
    Molecular point group: c1

    Geometry (in Angstrom), charge = 0, multiplicity = 1:

       Center              X                  Y                   Z               Mass
    ------------   -----------------  -----------------  -----------------  -----------------
      Gh(H)           0.496008138227     2.076530425994     1.237270926290     1.007825032230
      Gh(C)          -0.921072861773     0.444990425994     0.767068926290    12.000000000000
      Gh(C)           0.053914138227     1.519719425994     0.389122926290    12.000000000000
      Gh(O)           0.372371138227     1.795959425994    -0.752055073710    15.994914619570
      Gh(H)          -1.692684861773     0.910687425994     1.391111926290     1.007825032230
      Gh(C)          -1.530772861773    -0.292875574006    -0.410429073710    12.000000000000
      Gh(H)          -2.041583861773     0.422400425994    -1.056728073710     1.007825032230
      Gh(H)          -0.728226861773    -0.726243574006    -1.008411073710     1.007825032230
      Gh(H)          -0.385562861773    -0.244372574006     1.430204926290     1.007825032230
      Gh(C)          -2.494432861773    -1.380320574006     0.046496926290    12.000000000000
      Gh(H)          -1.983041861773    -2.115396574006     0.669342926290     1.007825032230
      Gh(H)          -3.311618861773    -0.958484574006     0.633125926290     1.007825032230
      Gh(H)          -2.929608861773    -1.906009574006    -0.802468073710     1.007825032230
         C            2.569276138227    -0.914960574006     0.607738926290    12.000000000000
         H            2.822296138227    -1.693489574006     1.314307926290     1.007825032230
         H            2.724675138227     0.109395425994     0.919215926290     1.007825032230
         C            2.097845138227    -1.201855574006    -0.607061073710    12.000000000000
         H            1.847273138227    -0.418492574006    -1.309251073710     1.007825032230
         H            1.954207138227    -2.226140574006    -0.923434073710     1.007825032230

  Charge       = 0
  Multiplicity = 1
  Basis Set: JUN-CC-PVTZ
    Blend: JUN-CC-PVTZ
  Basis Set: (JUN-CC-PVTZ AUX)
    Blend: JUN-CC-PVTZ-JKFIT

    Orbital Energies [Eh]
    ---------------------

    Doubly Occupied:

       1A    -11.231669     2A    -11.229966     3A     -1.034131
       4A     -0.793076     5A     -0.644958     6A     -0.586862
       7A     -0.508948     8A     -0.376717

  @DF-RHF Final Energy:   -78.06436180562585

   => Energetics <=

    Nuclear Repulsion Energy =             33.3905248696587051
    One-Electron Energy =                -170.0971174968658772
    Two-Electron Energy =                  58.6422308215813075
    Total Energy =                        -78.0643618056258504

  Dipole Moment: [D]
     X:     0.0104      Y:    -0.0013      Z:    -0.0016     Total:     0.0106

    SAPT Results
  --------------------------------------------------------------------------------------------------------
    Electrostatics                 -4.44836009 [mEh]      -2.79138810 [kcal/mol]     -11.67916781 [kJ/mol]
      Elst10,r                     -4.44836009 [mEh]      -2.79138810 [kcal/mol]     -11.67916781 [kJ/mol]

    Exchange                        7.13536541 [mEh]       4.47750939 [kcal/mol]      18.73389930 [kJ/mol]
      Exch10                        7.13536541 [mEh]       4.47750939 [kcal/mol]      18.73389930 [kJ/mol]
      Exch10(S^2)                   7.10352304 [mEh]       4.45752800 [kcal/mol]      18.65029716 [kJ/mol]

    Induction                      -1.07859086 [mEh]      -0.67682599 [kcal/mol]      -2.83183992 [kJ/mol]
      Ind20,r                      -3.05826262 [mEh]      -1.91908877 [kcal/mol]      -8.02946740 [kJ/mol]
      Exch-Ind20,r                  2.56189821 [mEh]       1.60761540 [kcal/mol]       6.72626282 [kJ/mol]
      delta HF,r (2)               -0.58222646 [mEh]      -0.36535262 [kcal/mol]      -1.52863535 [kJ/mol]

    Dispersion                     -6.49404693 [mEh]      -4.07507597 [kcal/mol]     -17.05011786 [kJ/mol]
      Disp20                       -7.37496851 [mEh]      -4.62786261 [kcal/mol]     -19.36297717 [kJ/mol]
      Exch-Disp20                   0.88092159 [mEh]       0.55278664 [kcal/mol]       2.31285931 [kJ/mol]
      Disp20 (SS)                  -3.68748426 [mEh]      -2.31393131 [kcal/mol]      -9.68148858 [kJ/mol]
      Disp20 (OS)                  -3.68748426 [mEh]      -2.31393131 [kcal/mol]      -9.68148858 [kJ/mol]
      Exch-Disp20 (SS)              0.56310687 [mEh]       0.35335490 [kcal/mol]       1.47843689 [kJ/mol]
      Exch-Disp20 (OS)              0.31781472 [mEh]       0.19943175 [kcal/mol]       0.83442242 [kJ/mol]

  Total HF                          1.60841446 [mEh]       1.00929531 [kcal/mol]       4.22289157 [kJ/mol]
  Total SAPT0                      -4.88563247 [mEh]      -3.06578066 [kcal/mol]     -12.82722629 [kJ/mol]

  Special recipe for scaled SAPT0 (see Manual):
    Electrostatics sSAPT0          -4.44836009 [mEh]      -2.79138810 [kcal/mol]     -11.67916781 [kJ/mol]
    Exchange sSAPT0                 7.13536541 [mEh]       4.47750939 [kcal/mol]      18.73389930 [kJ/mol]
    Induction sSAPT0               -1.04398417 [mEh]      -0.65510996 [kcal/mol]      -2.74098006 [kJ/mol]
    Dispersion sSAPT0              -6.48214724 [mEh]      -4.06760880 [kcal/mol]     -17.01887524 [kJ/mol]
  Total sSAPT0                     -4.83912609 [mEh]      -3.03659747 [kcal/mol]     -12.70512380 [kJ/mol]
  --------------------------------------------------------------------------------------------------------

*** Psi4 exiting successfully. Buy a developer a beer!
