                               Psi4 1.3.2 release

  ==> Input File <==

--------------------------------------------------------------------------
# Any line starting with the # character is a comment line
#! Sample  computation

memory 22 gb

molecule Dimer {
0 1
 H   2.561134    1.553773    0.123684
 C   2.310396   -0.428441   -0.824844
 C   2.298135    0.504984    0.350466
 O   2.017890    0.174671    1.487473
 H   3.283462   -0.318425   -1.313603
 C   2.021066   -1.873341   -0.459799
 H   2.768129   -2.250846    0.236182
 H   1.050621   -1.961864    0.024301
 H   2.025868   -2.502723   -1.347969
 H   1.580714   -0.031397   -1.538773

 --
0 1
 C   -0.415350    2.457178    0.031773
 C   -1.008132    1.500724   -0.690877
 C   -1.250403    0.106002   -0.211250
 C   -2.739499   -0.184039   -0.010205
 C   -2.982199   -1.621094    0.432949
 H   -0.042402    2.251018    1.027634
 H   -0.297020    3.460668   -0.353780
 H   -1.377361    1.746028   -1.683305
 H   -0.857210   -0.610463   -0.940580
 H   -0.714372   -0.059910    0.727108
 H   -3.135123    0.511962    0.732504
 H   -3.274742    0.014950   -0.942205
 H   -2.611251   -2.324216   -0.314012
 H   -2.464797   -1.827931    1.370422
 H   -4.042845   -1.819835    0.583331

units angstrom

no_reorient
symmetry c1
}

set globals{
  basis jun-cc-pvtz
}

energy('sapt0')

--------------------------------------------------------------------------

  //              Dimer HF             //
    Molecular point group: c1
  Charge       = 0
  Multiplicity = 1
  Basis Set: JUN-CC-PVTZ
    Blend: JUN-CC-PVTZ
  Basis Set: (JUN-CC-PVTZ AUX)
    Blend: JUN-CC-PVTZ-JKFIT
  @DF-RHF Final Energy:  -387.23450261287803
    Total Energy =                       -387.2345026128780319
  //            Monomer A HF           //
    Molecular point group: c1
  Multiplicity = 1
  Basis Set: JUN-CC-PVTZ
    Blend: JUN-CC-PVTZ
  Basis Set: (JUN-CC-PVTZ AUX)
    Blend: JUN-CC-PVTZ-JKFIT
  @DF-RHF Final Energy:  -192.02430077142989
    Total Energy =                       -192.0243007714298926
  //            Monomer B HF           //
    Molecular point group: c1

    Geometry (in Angstrom), charge = 0, multiplicity = 1:

       Center              X                  Y                   Z               Mass
    ------------   -----------------  -----------------  -----------------  -----------------
      Gh(H)           2.518255922063     1.521493224754     0.095794096752     1.007825032230
      Gh(C)           2.267517922063    -0.460720775246    -0.852733903248    12.000000000000
      Gh(C)           2.255256922063     0.472704224754     0.322576096752    12.000000000000
      Gh(O)           1.975011922063     0.142391224754     1.459583096752    15.994914619570
      Gh(H)           3.240583922063    -0.350704775246    -1.341492903248     1.007825032230
      Gh(C)           1.978187922063    -1.905620775246    -0.487688903248    12.000000000000
      Gh(H)           2.725250922063    -2.283125775246     0.208292096752     1.007825032230
      Gh(H)           1.007742922063    -1.994143775246    -0.003588903248     1.007825032230
      Gh(H)           1.982989922063    -2.535002775246    -1.375858903248     1.007825032230
      Gh(H)           1.537835922063    -0.063676775246    -1.566662903248     1.007825032230
         C           -0.458228077937     2.424898224754     0.003883096752    12.000000000000
         C           -1.051010077937     1.468444224754    -0.718766903248    12.000000000000
         C           -1.293281077937     0.073722224754    -0.239139903248    12.000000000000
         C           -2.782377077937    -0.216318775246    -0.038094903248    12.000000000000
         C           -3.025077077937    -1.653373775246     0.405059096752    12.000000000000
         H           -0.085280077937     2.218738224754     0.999744096752     1.007825032230
         H           -0.339898077937     3.428388224754    -0.381669903248     1.007825032230
         H           -1.420239077937     1.713748224754    -1.711194903248     1.007825032230
         H           -0.900088077937    -0.642742775246    -0.968469903248     1.007825032230
         H           -0.757250077937    -0.092189775246     0.699218096752     1.007825032230
         H           -3.178001077937     0.479682224754     0.704614096752     1.007825032230
         H           -3.317620077937    -0.017329775246    -0.970094903248     1.007825032230
         H           -2.654129077937    -2.356495775246    -0.341901903248     1.007825032230
         H           -2.507675077937    -1.860210775246     1.342532096752     1.007825032230
         H           -4.085723077937    -1.852114775246     0.555441096752     1.007825032230

  Charge       = 0
  Multiplicity = 1
  Basis Set: JUN-CC-PVTZ
    Blend: JUN-CC-PVTZ
  Basis Set: (JUN-CC-PVTZ AUX)
    Blend: JUN-CC-PVTZ-JKFIT

    Orbital Energies [Eh]
    ---------------------

    Doubly Occupied:

       1A    -11.230946     2A    -11.222025     3A    -11.219408
       4A    -11.217392     5A    -11.211423     6A     -1.089574
       7A     -1.021712     8A     -0.922255     9A     -0.812163
      10A     -0.756073    11A     -0.652089    12A     -0.616693
      13A     -0.588475    14A     -0.566811    15A     -0.537635
      16A     -0.511149    17A     -0.483948    18A     -0.472141
      19A     -0.470654    20A     -0.355758

  @DF-RHF Final Energy:  -195.21214463924665

   => Energetics <=

    Nuclear Repulsion Energy =            170.6676985721223332
    One-Electron Energy =                -599.8430396657793153
    Two-Electron Energy =                 233.9631964544103369
    Total Energy =                       -195.2121446392466453

  Dipole Moment: [D]
     X:    -0.2767      Y:    -0.3589      Z:    -0.0470     Total:     0.4556

    SAPT Results
  --------------------------------------------------------------------------------------------------------
    Electrostatics                 -5.07280170 [mEh]      -3.18323113 [kcal/mol]     -13.31863903 [kJ/mol]
      Elst10,r                     -5.07280170 [mEh]      -3.18323113 [kcal/mol]     -13.31863903 [kJ/mol]

    Exchange                        8.25677920 [mEh]       5.18120717 [kcal/mol]      21.67817081 [kJ/mol]
      Exch10                        8.25677920 [mEh]       5.18120717 [kcal/mol]      21.67817081 [kJ/mol]
      Exch10(S^2)                   8.23405485 [mEh]       5.16694743 [kcal/mol]      21.61850803 [kJ/mol]

    Induction                      -1.24117970 [mEh]      -0.77885202 [kcal/mol]      -3.25871687 [kJ/mol]
      Ind20,r                      -2.98503331 [mEh]      -1.87313668 [kcal/mol]      -7.83720387 [kJ/mol]
      Exch-Ind20,r                  2.38859986 [mEh]       1.49886904 [kcal/mol]       6.27126806 [kJ/mol]
      delta HF,r (2)               -0.64474625 [mEh]      -0.40458438 [kcal/mol]      -1.69278105 [kJ/mol]

    Dispersion                     -8.41239902 [mEh]      -5.27886008 [kcal/mol]     -22.08675057 [kJ/mol]
      Disp20                       -9.36517502 [mEh]      -5.87673605 [kcal/mol]     -24.58826363 [kJ/mol]
      Exch-Disp20                   0.95277600 [mEh]       0.59787597 [kcal/mol]       2.50151305 [kJ/mol]
      Disp20 (SS)                  -4.68258751 [mEh]      -2.93836802 [kcal/mol]     -12.29413181 [kJ/mol]
      Disp20 (OS)                  -4.68258751 [mEh]      -2.93836802 [kcal/mol]     -12.29413181 [kJ/mol]
      Exch-Disp20 (SS)              0.62281251 [mEh]       0.39082075 [kcal/mol]       1.63519402 [kJ/mol]
      Exch-Disp20 (OS)              0.32996349 [mEh]       0.20705522 [kcal/mol]       0.86631903 [kJ/mol]

  Total HF                          1.94279780 [mEh]       1.21912402 [kcal/mol]       5.10081492 [kJ/mol]
  Total SAPT0                      -6.46960122 [mEh]      -4.05973606 [kcal/mol]     -16.98593566 [kJ/mol]

  Special recipe for scaled SAPT0 (see Manual):
    Electrostatics sSAPT0          -5.07280170 [mEh]      -3.18323113 [kcal/mol]     -13.31863903 [kJ/mol]
    Exchange sSAPT0                 8.25677920 [mEh]       5.18120717 [kcal/mol]      21.67817081 [kJ/mol]
    Induction sSAPT0               -1.22134890 [mEh]      -0.76640800 [kcal/mol]      -3.20665108 [kJ/mol]
    Dispersion sSAPT0              -8.40448881 [mEh]      -5.27389635 [kcal/mol]     -22.06598233 [kJ/mol]
  Total sSAPT0                     -6.44186020 [mEh]      -4.04232831 [kcal/mol]     -16.91310163 [kJ/mol]
  --------------------------------------------------------------------------------------------------------

*** Psi4 exiting successfully. Buy a developer a beer!
