                               Psi4 1.3.2 release

  ==> Input File <==

--------------------------------------------------------------------------
# Any line starting with the # character is a comment line
#! Sample  computation

memory 22 gb

molecule Dimer {
0 1
 H   -3.072131    0.601238   -0.413218
 C   -2.414737   -0.808951    1.155426
 C   -2.524839   -0.346536   -0.263970
 O   -2.061558   -0.940495   -1.218933
 H   -1.859957   -1.741227    1.213745
 H   -1.918974   -0.033191    1.741315
 H   -3.415650   -0.938933    1.570606

 --
0 1
 C   -0.322486    2.125840   -0.421051
 C    0.413492    1.413377    0.438886
 C    0.989786    0.065858    0.147371
 C    2.518920    0.095706    0.095501
 C    3.106096   -1.287418   -0.154545
 H   -0.568300    1.731892   -1.399620
 H   -0.685901    3.112598   -0.168047
 H    0.646906    1.843850    1.409600
 H    0.684776   -0.643540    0.924226
 H    0.593675   -0.308838   -0.799344
 H    2.830150    0.785134   -0.692247
 H    2.904344    0.500125    1.035055
 H    2.821664   -1.977872    0.640436
 H    2.740189   -1.697010   -1.096535
 H    4.194281   -1.257509   -0.200215

units angstrom

no_reorient
symmetry c1
}

set globals{
  basis jun-cc-pvtz
}

energy('sapt0')

--------------------------------------------------------------------------

  //              Dimer HF             //
    Molecular point group: c1
  Charge       = 0
  Multiplicity = 1
  Basis Set: JUN-CC-PVTZ
    Blend: JUN-CC-PVTZ
  Basis Set: (JUN-CC-PVTZ AUX)
    Blend: JUN-CC-PVTZ-JKFIT
  @DF-RHF Final Energy:  -348.18647426895956
    Total Energy =                       -348.1864742689595573
  //            Monomer A HF           //
    Molecular point group: c1
  Multiplicity = 1
  Basis Set: JUN-CC-PVTZ
    Blend: JUN-CC-PVTZ
  Basis Set: (JUN-CC-PVTZ AUX)
    Blend: JUN-CC-PVTZ-JKFIT
  @DF-RHF Final Energy:  -152.97578635192221
    Total Energy =                       -152.9757863519222099
  //            Monomer B HF           //
    Molecular point group: c1

    Geometry (in Angstrom), charge = 0, multiplicity = 1:

       Center              X                  Y                   Z               Mass
    ------------   -----------------  -----------------  -----------------  -----------------
      Gh(H)          -3.020963334815     0.600993403221    -0.380527876176     1.007825032230
      Gh(C)          -2.363569334815    -0.809195596779     1.188116123824    12.000000000000
      Gh(C)          -2.473671334815    -0.346780596779    -0.231279876176    12.000000000000
      Gh(O)          -2.010390334815    -0.940739596779    -1.186242876176    15.994914619570
      Gh(H)          -1.808789334815    -1.741471596779     1.246435123824     1.007825032230
      Gh(H)          -1.867806334815    -0.033435596779     1.774005123824     1.007825032230
      Gh(H)          -3.364482334815    -0.939177596779     1.603296123824     1.007825032230
         C           -0.271318334815     2.125595403221    -0.388360876176    12.000000000000
         C            0.464659665185     1.413132403221     0.471576123824    12.000000000000
         C            1.040953665185     0.065613403221     0.180061123824    12.000000000000
         C            2.570087665185     0.095461403221     0.128191123824    12.000000000000
         C            3.157263665185    -1.287662596779    -0.121854876176    12.000000000000
         H           -0.517132334815     1.731647403221    -1.366929876176     1.007825032230
         H           -0.634733334815     3.112353403221    -0.135356876176     1.007825032230
         H            0.698073665185     1.843605403221     1.442290123824     1.007825032230
         H            0.735943665185    -0.643784596779     0.956916123824     1.007825032230
         H            0.644842665185    -0.309082596779    -0.766653876176     1.007825032230
         H            2.881317665185     0.784889403221    -0.659556876176     1.007825032230
         H            2.955511665185     0.499880403221     1.067745123824     1.007825032230
         H            2.872831665185    -1.978116596779     0.673126123824     1.007825032230
         H            2.791356665185    -1.697254596779    -1.063844876176     1.007825032230
         H            4.245448665185    -1.257753596779    -0.167524876176     1.007825032230

  Charge       = 0
  Multiplicity = 1
  Basis Set: JUN-CC-PVTZ
    Blend: JUN-CC-PVTZ
  Basis Set: (JUN-CC-PVTZ AUX)
    Blend: JUN-CC-PVTZ-JKFIT

    Orbital Energies [Eh]
    ---------------------

    Doubly Occupied:

       1A    -11.230952     2A    -11.221996     3A    -11.219495
       4A    -11.217341     5A    -11.211403     6A     -1.089620
       7A     -1.021714     8A     -0.922414     9A     -0.812091
      10A     -0.756332    11A     -0.651674    12A     -0.616733
      13A     -0.588575    14A     -0.567278    15A     -0.537747
      16A     -0.510777    17A     -0.484002    18A     -0.472504
      19A     -0.470527    20A     -0.355734

  @DF-RHF Final Energy:  -195.21220646109327

   => Energetics <=

    Nuclear Repulsion Energy =            170.6361511748300188
    One-Electron Energy =                -599.7788980226569038
    Two-Electron Energy =                 233.9305403867335826
    Total Energy =                       -195.2122064610932739

  Dipole Moment: [D]
     X:     0.3427      Y:    -0.2846      Z:     0.1074     Total:     0.4582

    SAPT Results
  --------------------------------------------------------------------------------------------------------
    Electrostatics                 -5.31715755 [mEh]      -3.33656674 [kcal/mol]     -13.96019524 [kJ/mol]
      Elst10,r                     -5.31715755 [mEh]      -3.33656674 [kcal/mol]     -13.96019524 [kJ/mol]

    Exchange                        8.24779926 [mEh]       5.17557217 [kcal/mol]      21.65459397 [kJ/mol]
      Exch10                        8.24779926 [mEh]       5.17557217 [kcal/mol]      21.65459397 [kJ/mol]
      Exch10(S^2)                   8.21443530 [mEh]       5.15463597 [kcal/mol]      21.56699690 [kJ/mol]

    Induction                      -1.41209765 [mEh]      -0.88610465 [kcal/mol]      -3.70746186 [kJ/mol]
      Ind20,r                      -3.65903612 [mEh]      -2.29607983 [kcal/mol]      -9.60679802 [kJ/mol]
      Exch-Ind20,r                  2.95800443 [mEh]       1.85617581 [kcal/mol]       7.76623957 [kJ/mol]
      delta HF,r (2)               -0.71106596 [mEh]      -0.44620063 [kcal/mol]      -1.86690342 [kJ/mol]

    Dispersion                     -7.53375755 [mEh]      -4.72750424 [kcal/mol]     -19.77987772 [kJ/mol]
      Disp20                       -8.49624862 [mEh]      -5.33147650 [kcal/mol]     -22.30689768 [kJ/mol]
      Exch-Disp20                   0.96249107 [mEh]       0.60397227 [kcal/mol]       2.52701996 [kJ/mol]
      Disp20 (SS)                  -4.24812431 [mEh]      -2.66573825 [kcal/mol]     -11.15344884 [kJ/mol]
      Disp20 (OS)                  -4.24812431 [mEh]      -2.66573825 [kcal/mol]     -11.15344884 [kJ/mol]
      Exch-Disp20 (SS)              0.62279745 [mEh]       0.39081130 [kcal/mol]       1.63515448 [kJ/mol]
      Exch-Disp20 (OS)              0.33969362 [mEh]       0.21316097 [kcal/mol]       0.89186549 [kJ/mol]

  Total HF                          1.51854406 [mEh]       0.95290078 [kcal/mol]       3.98693687 [kJ/mol]
  Total SAPT0                      -6.01521349 [mEh]      -3.77460345 [kcal/mol]     -15.79294085 [kJ/mol]

  Special recipe for scaled SAPT0 (see Manual):
    Electrostatics sSAPT0          -5.31715755 [mEh]      -3.33656674 [kcal/mol]     -13.96019524 [kJ/mol]
    Exchange sSAPT0                 8.24779926 [mEh]       5.17557217 [kcal/mol]      21.65459397 [kJ/mol]
    Induction sSAPT0               -1.37590813 [mEh]      -0.86339539 [kcal/mol]      -3.61244631 [kJ/mol]
    Dispersion sSAPT0              -7.52198201 [mEh]      -4.72011498 [kcal/mol]     -19.74896106 [kJ/mol]
  Total sSAPT0                     -5.96724845 [mEh]      -3.74450493 [kcal/mol]     -15.66700864 [kJ/mol]
  --------------------------------------------------------------------------------------------------------

*** Psi4 exiting successfully. Buy a developer a beer!
