                               Psi4 1.3.2 release

  ==> Input File <==

--------------------------------------------------------------------------
# Any line starting with the # character is a comment line
#! Sample  computation

memory 22 gb

molecule Dimer {
0 1
 H   -1.945922   -2.397207   -0.060607
 C   -2.114048   -0.234033   -0.489884
 C   -1.863810   -1.403481    0.416248
 O   -1.577574   -1.312078    1.595488
 H   -3.073432   -0.404630   -0.990968
 C   -2.083286    1.116586    0.203383
 H   -2.876562    1.152290    0.951808
 H   -1.145966    1.215128    0.751407
 H   -1.359433   -0.293385   -1.283706
 C   -2.239187    2.261429   -0.789067
 H   -1.429946    2.253603   -1.521139
 H   -3.179937    2.182238   -1.335526
 H   -2.225155    3.227393   -0.285750

 --
0 1
 C   1.202903   -2.482720   -0.493522
 C   1.499736   -1.273646   -0.981876
 C   1.456017   -0.007756   -0.188610
 C   2.847863    0.591235    0.024111
 C   2.786231    1.906410    0.790279
 H   0.878950   -2.603791    0.532997
 H   1.283101   -3.370992   -1.105211
 H   1.829508   -1.191091   -2.014278
 H   0.840264    0.734668   -0.708425
 H   0.985836   -0.196544    0.780385
 H   3.462824   -0.131974    0.563864
 H   3.325837    0.746319   -0.946558
 H   2.191791    2.642674    0.247413
 H   2.324765    1.761754    1.767802
 H   3.779551    2.326024    0.946220

units angstrom

no_reorient
symmetry c1
}

set globals{
  basis jun-cc-pvtz
}

energy('sapt0')

--------------------------------------------------------------------------

  //              Dimer HF             //
    Molecular point group: c1
  Charge       = 0
  Multiplicity = 1
  Basis Set: JUN-CC-PVTZ
    Blend: JUN-CC-PVTZ
  Basis Set: (JUN-CC-PVTZ AUX)
    Blend: JUN-CC-PVTZ-JKFIT
  @DF-RHF Final Energy:  -426.28160863057713
    Total Energy =                       -426.2816086305771250
  //            Monomer A HF           //
    Molecular point group: c1
  Multiplicity = 1
  Basis Set: JUN-CC-PVTZ
    Blend: JUN-CC-PVTZ
  Basis Set: (JUN-CC-PVTZ AUX)
    Blend: JUN-CC-PVTZ-JKFIT
  @DF-RHF Final Energy:  -231.07183264092617
    Total Energy =                       -231.0718326409261749
  //            Monomer B HF           //
    Molecular point group: c1

    Geometry (in Angstrom), charge = 0, multiplicity = 1:

       Center              X                  Y                   Z               Mass
    ------------   -----------------  -----------------  -----------------  -----------------
      Gh(H)          -1.920387453619    -2.343835987473    -0.086449428423     1.007825032230
      Gh(C)          -2.088513453619    -0.180661987473    -0.515726428423    12.000000000000
      Gh(C)          -1.838275453619    -1.350109987473     0.390405571577    12.000000000000
      Gh(O)          -1.552039453619    -1.258706987473     1.569645571577    15.994914619570
      Gh(H)          -3.047897453619    -0.351258987473    -1.016810428423     1.007825032230
      Gh(C)          -2.057751453619     1.169957012527     0.177540571577    12.000000000000
      Gh(H)          -2.851027453619     1.205661012527     0.925965571577     1.007825032230
      Gh(H)          -1.120431453619     1.268499012527     0.725564571577     1.007825032230
      Gh(H)          -1.333898453619    -0.240013987473    -1.309548428423     1.007825032230
      Gh(C)          -2.213652453619     2.314800012527    -0.814909428423    12.000000000000
      Gh(H)          -1.404411453619     2.306974012527    -1.546981428423     1.007825032230
      Gh(H)          -3.154402453619     2.235609012527    -1.361368428423     1.007825032230
      Gh(H)          -2.199620453619     3.280764012527    -0.311592428423     1.007825032230
         C            1.228437546381    -2.429348987473    -0.519364428423    12.000000000000
         C            1.525270546381    -1.220274987473    -1.007718428423    12.000000000000
         C            1.481551546381     0.045615012527    -0.214452428423    12.000000000000
         C            2.873397546381     0.644606012527    -0.001731428423    12.000000000000
         C            2.811765546381     1.959781012527     0.764436571577    12.000000000000
         H            0.904484546381    -2.550419987473     0.507154571577     1.007825032230
         H            1.308635546381    -3.317620987473    -1.131053428423     1.007825032230
         H            1.855042546381    -1.137719987473    -2.040120428423     1.007825032230
         H            0.865798546381     0.788039012527    -0.734267428423     1.007825032230
         H            1.011370546381    -0.143172987473     0.754542571577     1.007825032230
         H            3.488358546381    -0.078602987473     0.538021571577     1.007825032230
         H            3.351371546381     0.799690012527    -0.972400428423     1.007825032230
         H            2.217325546381     2.696045012527     0.221570571577     1.007825032230
         H            2.350299546381     1.815125012527     1.741959571577     1.007825032230
         H            3.805085546381     2.379395012527     0.920377571577     1.007825032230

  Charge       = 0
  Multiplicity = 1
  Basis Set: JUN-CC-PVTZ
    Blend: JUN-CC-PVTZ
  Basis Set: (JUN-CC-PVTZ AUX)
    Blend: JUN-CC-PVTZ-JKFIT

    Orbital Energies [Eh]
    ---------------------

    Doubly Occupied:

       1A    -11.230963     2A    -11.222033     3A    -11.219415
       4A    -11.217424     5A    -11.211458     6A     -1.089578
       7A     -1.021790     8A     -0.922186     9A     -0.812161
      10A     -0.756143    11A     -0.652036    12A     -0.616754
      13A     -0.588545    14A     -0.566720    15A     -0.537630
      16A     -0.511099    17A     -0.483970    18A     -0.472195
      19A     -0.470641    20A     -0.355779

  @DF-RHF Final Energy:  -195.21216643691722

   => Energetics <=

    Nuclear Repulsion Energy =            170.6492917902367878
    One-Electron Energy =                -599.8058792137828732
    Two-Electron Energy =                 233.9444209866288418
    Total Energy =                       -195.2121664369172152

  Dipole Moment: [D]
     X:     0.1800      Y:     0.4164      Z:     0.0316     Total:     0.4547

    SAPT Results
  --------------------------------------------------------------------------------------------------------
    Electrostatics                 -5.10629606 [mEh]      -3.20424915 [kcal/mol]     -13.40657845 [kJ/mol]
      Elst10,r                     -5.10629606 [mEh]      -3.20424915 [kcal/mol]     -13.40657845 [kJ/mol]

    Exchange                        8.74985244 [mEh]       5.49061530 [kcal/mol]      22.97273443 [kJ/mol]
      Exch10                        8.74985244 [mEh]       5.49061530 [kcal/mol]      22.97273443 [kJ/mol]
      Exch10(S^2)                   8.72756426 [mEh]       5.47662925 [kcal/mol]      22.91421680 [kJ/mol]

    Induction                      -1.25310912 [mEh]      -0.78633784 [kcal/mol]      -3.29003754 [kJ/mol]
      Ind20,r                      -2.99312518 [mEh]      -1.87821441 [kcal/mol]      -7.85844908 [kJ/mol]
      Exch-Ind20,r                  2.39879690 [mEh]       1.50526778 [kcal/mol]       6.29804040 [kJ/mol]
      delta HF,r (2)               -0.65878084 [mEh]      -0.41339122 [kcal/mol]      -1.72962886 [kJ/mol]

    Dispersion                     -9.36530783 [mEh]      -5.87681939 [kcal/mol]     -24.58861232 [kJ/mol]
      Disp20                      -10.39285551 [mEh]      -6.52161529 [kcal/mol]     -27.28643837 [kJ/mol]
      Exch-Disp20                   1.02754768 [mEh]       0.64479590 [kcal/mol]       2.69782605 [kJ/mol]
      Disp20 (SS)                  -5.19642775 [mEh]      -3.26080764 [kcal/mol]     -13.64321919 [kJ/mol]
      Disp20 (OS)                  -5.19642775 [mEh]      -3.26080764 [kcal/mol]     -13.64321919 [kJ/mol]
      Exch-Disp20 (SS)              0.67201606 [mEh]       0.42169644 [kcal/mol]       1.76437791 [kJ/mol]
      Exch-Disp20 (OS)              0.35553162 [mEh]       0.22309946 [kcal/mol]       0.93344814 [kJ/mol]

  Total HF                          2.39044727 [mEh]       1.50002831 [kcal/mol]       6.27611843 [kJ/mol]
  Total SAPT0                      -6.97486056 [mEh]      -4.37679108 [kcal/mol]     -18.31249389 [kJ/mol]

  Special recipe for scaled SAPT0 (see Manual):
    Electrostatics sSAPT0          -5.10629606 [mEh]      -3.20424915 [kcal/mol]     -13.40657845 [kJ/mol]
    Exchange sSAPT0                 8.74985244 [mEh]       5.49061530 [kcal/mol]      22.97273443 [kJ/mol]
    Induction sSAPT0               -1.23468422 [mEh]      -0.77477605 [kcal/mol]      -3.24166298 [kJ/mol]
    Dispersion sSAPT0              -9.35741535 [mEh]      -5.87186678 [kcal/mol]     -24.56789062 [kJ/mol]
  Total sSAPT0                     -6.94854319 [mEh]      -4.36027668 [kcal/mol]     -18.24339762 [kJ/mol]
  --------------------------------------------------------------------------------------------------------

*** Psi4 exiting successfully. Buy a developer a beer!
