                               Psi4 1.3.2 release

  ==> Input File <==

--------------------------------------------------------------------------
# Any line starting with the # character is a comment line
#! Sample  computation

memory 22 gb

molecule Dimer {
0 1
 H  -1.473369    1.549428    0.098673
 C  -1.772463   -0.407767    1.079736
 C  -1.579356    0.471353   -0.116531
 O  -1.536762    0.070746   -1.264084
 H  -1.875436   -1.446920    0.779915
 H  -0.917323   -0.286918    1.746803
 H  -2.658970   -0.083724    1.627319

 --
0 1
 C   1.627736    1.266994    0.064248
 C   1.802414    0.000084    0.452582
 C   1.518561   -1.192641   -0.402354
 H   1.861405    2.092923    0.721868
 H   1.254886    1.498423   -0.925736
 H   2.182394   -0.189164    1.452101
 H   0.801610   -1.859134    0.080873
 H   1.109397   -0.896883   -1.366735
 H   2.428145   -1.772139   -0.568494

units angstrom

no_reorient
symmetry c1
}

set globals{
  basis jun-cc-pvtz
}

energy('sapt0')

--------------------------------------------------------------------------

  //              Dimer HF             //
    Molecular point group: c1
  Charge       = 0
  Multiplicity = 1
  Basis Set: JUN-CC-PVTZ
    Blend: JUN-CC-PVTZ
  Basis Set: (JUN-CC-PVTZ AUX)
    Blend: JUN-CC-PVTZ-JKFIT
  @DF-RHF Final Energy:  -270.09110280410499
    Total Energy =                       -270.0911028041049917
  //            Monomer A HF           //
    Molecular point group: c1
  Multiplicity = 1
  Basis Set: JUN-CC-PVTZ
    Blend: JUN-CC-PVTZ
  Basis Set: (JUN-CC-PVTZ AUX)
    Blend: JUN-CC-PVTZ-JKFIT
  @DF-RHF Final Energy:  -152.97578743812792
    Total Energy =                       -152.9757874381279237
  //            Monomer B HF           //
    Molecular point group: c1

    Geometry (in Angstrom), charge = 0, multiplicity = 1:

       Center              X                  Y                   Z               Mass
    ------------   -----------------  -----------------  -----------------  -----------------
      Gh(H)          -1.442189634023     1.533362187960     0.140632906942     1.007825032230
      Gh(C)          -1.741283634023    -0.423832812040     1.121695906942    12.000000000000
      Gh(C)          -1.548176634023     0.455287187960    -0.074571093058    12.000000000000
      Gh(O)          -1.505582634023     0.054680187960    -1.222124093058    15.994914619570
      Gh(H)          -1.844256634023    -1.462985812040     0.821874906942     1.007825032230
      Gh(H)          -0.886143634023    -0.302983812040     1.788762906942     1.007825032230
      Gh(H)          -2.627790634023    -0.099789812040     1.669278906942     1.007825032230
         C            1.658915365977     1.250928187960     0.106207906942    12.000000000000
         C            1.833593365977    -0.015981812040     0.494541906942    12.000000000000
         C            1.549740365977    -1.208706812040    -0.360394093058    12.000000000000
         H            1.892584365977     2.076857187960     0.763827906942     1.007825032230
         H            1.286065365977     1.482357187960    -0.883776093058     1.007825032230
         H            2.213573365977    -0.205229812040     1.494060906942     1.007825032230
         H            0.832789365977    -1.875199812040     0.122832906942     1.007825032230
         H            1.140576365977    -0.912948812040    -1.324775093058     1.007825032230
         H            2.459324365977    -1.788204812040    -0.526534093058     1.007825032230

  Charge       = 0
  Multiplicity = 1
  Basis Set: JUN-CC-PVTZ
    Blend: JUN-CC-PVTZ
  Basis Set: (JUN-CC-PVTZ AUX)
    Blend: JUN-CC-PVTZ-JKFIT

    Orbital Energies [Eh]
    ---------------------

    Doubly Occupied:

       1A    -11.234551     2A    -11.220837     3A    -11.217611
       4A     -1.064755     5A     -0.932913     6A     -0.757947
       7A     -0.639819     8A     -0.582805     9A     -0.568391
      10A     -0.523282    11A     -0.493295    12A     -0.357743

  @DF-RHF Final Energy:  -117.11685988134744

   => Energetics <=

    Nuclear Repulsion Energy =             70.8544384733551738
    One-Electron Energy =                -296.7546982208921236
    Two-Electron Energy =                 108.7833998661895123
    Total Energy =                       -117.1168598813474375

  Dipole Moment: [D]
     X:     0.0174      Y:    -0.4260      Z:    -0.0251     Total:     0.4271

    SAPT Results
  --------------------------------------------------------------------------------------------------------
    Electrostatics                 -5.19354395 [mEh]      -3.25899803 [kcal/mol]     -13.63564777 [kJ/mol]
      Elst10,r                     -5.19354395 [mEh]      -3.25899803 [kcal/mol]     -13.63564777 [kJ/mol]

    Exchange                        8.13850662 [mEh]       5.10699001 [kcal/mol]      21.36764618 [kJ/mol]
      Exch10                        8.13850662 [mEh]       5.10699001 [kcal/mol]      21.36764618 [kJ/mol]
      Exch10(S^2)                   8.10338397 [mEh]       5.08495021 [kcal/mol]      21.27543168 [kJ/mol]

    Induction                      -1.40044730 [mEh]      -0.87879395 [kcal/mol]      -3.67687387 [kJ/mol]
      Ind20,r                      -3.68990266 [mEh]      -2.31544887 [kcal/mol]      -9.68783809 [kJ/mol]
      Exch-Ind20,r                  3.01152239 [mEh]       1.88975883 [kcal/mol]       7.90675095 [kJ/mol]
      delta HF,r (2)               -0.72206703 [mEh]      -0.45310390 [kcal/mol]      -1.89578672 [kJ/mol]

    Dispersion                     -7.21002784 [mEh]      -4.52436077 [kcal/mol]     -18.92992547 [kJ/mol]
      Disp20                       -8.15045059 [mEh]      -5.11448496 [kcal/mol]     -21.39900507 [kJ/mol]
      Exch-Disp20                   0.94042275 [mEh]       0.59012419 [kcal/mol]       2.46907960 [kJ/mol]
      Disp20 (SS)                  -4.07522529 [mEh]      -2.55724248 [kcal/mol]     -10.69950254 [kJ/mol]
      Disp20 (OS)                  -4.07522529 [mEh]      -2.55724248 [kcal/mol]     -10.69950254 [kJ/mol]
      Exch-Disp20 (SS)              0.60647096 [mEh]       0.38056627 [kcal/mol]       1.59228929 [kJ/mol]
      Exch-Disp20 (OS)              0.33395179 [mEh]       0.20955791 [kcal/mol]       0.87679031 [kJ/mol]

  Total HF                          1.54451537 [mEh]       0.96919803 [kcal/mol]       4.05512455 [kJ/mol]
  Total SAPT0                      -5.66551247 [mEh]      -3.55516275 [kcal/mol]     -14.87480093 [kJ/mol]

  Special recipe for scaled SAPT0 (see Manual):
    Electrostatics sSAPT0          -5.19354395 [mEh]      -3.25899803 [kcal/mol]     -13.63564777 [kJ/mol]
    Exchange sSAPT0                 8.13850662 [mEh]       5.10699001 [kcal/mol]      21.36764618 [kJ/mol]
    Induction sSAPT0               -1.36111863 [mEh]      -0.85411484 [kcal/mol]      -3.57361647 [kJ/mol]
    Dispersion sSAPT0              -7.19774648 [mEh]      -4.51665411 [kcal/mol]     -18.89768078 [kJ/mol]
  Total sSAPT0                     -5.61390245 [mEh]      -3.52277697 [kcal/mol]     -14.73929884 [kJ/mol]
  --------------------------------------------------------------------------------------------------------

*** Psi4 exiting successfully. Buy a developer a beer!
