                               Psi4 1.3.2 release

  ==> Input File <==

--------------------------------------------------------------------------
# Any line starting with the # character is a comment line
#! Sample  computation

memory 22 gb

molecule Dimer {
0 1
 H   0.355938   -1.580097    1.115901
 C   1.744462    0.117275    0.830759
 C   0.914854   -1.030354    0.335604
 O   0.831922   -1.370841   -0.829138
 H   2.442465   -0.290969    1.569251
 C   2.465494    0.868447   -0.273162
 H   3.122629    0.202063   -0.828611
 H   1.751429    1.287871   -0.979567
 H   3.061297    1.680223    0.139983
 H   1.068955    0.768911    1.393284

 --
0 1
 C   -1.336225    1.375227   -0.478009
 C   -2.190322    0.692096    0.290215
 C   -2.568015   -0.737915    0.068508
 H   -1.112079    2.414425   -0.279164
 H   -0.851843    0.905304   -1.324908
 H   -2.656497    1.199786    1.128980
 H   -3.635171   -0.825581   -0.142048
 H   -2.011133   -1.166619   -0.763255
 H   -2.372856   -1.337248    0.959767

units angstrom

no_reorient
symmetry c1
}

set globals{
  basis jun-cc-pvtz
}

energy('sapt0')

--------------------------------------------------------------------------

  //              Dimer HF             //
    Molecular point group: c1
  Charge       = 0
  Multiplicity = 1
  Basis Set: JUN-CC-PVTZ
    Blend: JUN-CC-PVTZ
  Basis Set: (JUN-CC-PVTZ AUX)
    Blend: JUN-CC-PVTZ-JKFIT
  @DF-RHF Final Energy:  -309.13949798819510
    Total Energy =                       -309.1394979881951031
  //            Monomer A HF           //
    Molecular point group: c1
  Multiplicity = 1
  Basis Set: JUN-CC-PVTZ
    Blend: JUN-CC-PVTZ
  Basis Set: (JUN-CC-PVTZ AUX)
    Blend: JUN-CC-PVTZ-JKFIT
  @DF-RHF Final Energy:  -192.02434470301671
    Total Energy =                       -192.0243447030167090
  //            Monomer B HF           //
    Molecular point group: c1

    Geometry (in Angstrom), charge = 0, multiplicity = 1:

       Center              X                  Y                   Z               Mass
    ------------   -----------------  -----------------  -----------------  -----------------
      Gh(H)           0.347684501778    -1.547869530259     1.135581817800     1.007825032230
      Gh(C)           1.736208501778     0.149502469741     0.850439817800    12.000000000000
      Gh(C)           0.906600501778    -0.998126530259     0.355284817800    12.000000000000
      Gh(O)           0.823668501778    -1.338613530259    -0.809457182200    15.994914619570
      Gh(H)           2.434211501778    -0.258741530259     1.588931817800     1.007825032230
      Gh(C)           2.457240501778     0.900674469741    -0.253481182200    12.000000000000
      Gh(H)           3.114375501778     0.234290469741    -0.808930182200     1.007825032230
      Gh(H)           1.743175501778     1.320098469741    -0.959886182200     1.007825032230
      Gh(H)           3.053043501778     1.712450469741     0.159663817800     1.007825032230
      Gh(H)           1.060701501778     0.801138469741     1.412964817800     1.007825032230
         C           -1.344478498222     1.407454469741    -0.458328182200    12.000000000000
         C           -2.198575498222     0.724323469741     0.309895817800    12.000000000000
         C           -2.576268498222    -0.705687530259     0.088188817800    12.000000000000
         H           -1.120332498222     2.446652469741    -0.259483182200     1.007825032230
         H           -0.860096498222     0.937531469741    -1.305227182200     1.007825032230
         H           -2.664750498222     1.232013469741     1.148660817800     1.007825032230
         H           -3.643424498222    -0.793353530259    -0.122367182200     1.007825032230
         H           -2.019386498222    -1.134391530259    -0.743574182200     1.007825032230
         H           -2.381109498222    -1.305020530259     0.979447817800     1.007825032230

  Charge       = 0
  Multiplicity = 1
  Basis Set: JUN-CC-PVTZ
    Blend: JUN-CC-PVTZ
  Basis Set: (JUN-CC-PVTZ AUX)
    Blend: JUN-CC-PVTZ-JKFIT

    Orbital Energies [Eh]
    ---------------------

    Doubly Occupied:

       1A    -11.234582     2A    -11.220922     3A    -11.217644
       4A     -1.064620     5A     -0.932828     6A     -0.757923
       7A     -0.639827     8A     -0.582717     9A     -0.568071
      10A     -0.523535    11A     -0.493191    12A     -0.357754

  @DF-RHF Final Energy:  -117.11684787874908

   => Energetics <=

    Nuclear Repulsion Energy =             70.8428785607347322
    One-Electron Energy =                -296.7322255212372966
    Two-Electron Energy =                 108.7724990817534803
    Total Energy =                       -117.1168478787490841

  Dipole Moment: [D]
     X:    -0.2502      Y:    -0.3213      Z:     0.1321     Total:     0.4281

    SAPT Results
  --------------------------------------------------------------------------------------------------------
    Electrostatics                 -5.08811306 [mEh]      -3.19283915 [kcal/mol]     -13.35883899 [kJ/mol]
      Elst10,r                     -5.08811306 [mEh]      -3.19283915 [kcal/mol]     -13.35883899 [kJ/mol]

    Exchange                        7.95354206 [mEh]       4.99092299 [kcal/mol]      20.88202181 [kJ/mol]
      Exch10                        7.95354206 [mEh]       4.99092299 [kcal/mol]      20.88202181 [kJ/mol]
      Exch10(S^2)                   7.92479172 [mEh]       4.97288189 [kcal/mol]      20.80653781 [kJ/mol]

    Induction                      -1.17083544 [mEh]      -0.73471033 [kcal/mol]      -3.07402801 [kJ/mol]
      Ind20,r                      -3.49211982 [mEh]      -2.19133827 [kcal/mol]      -9.16855934 [kJ/mol]
      Exch-Ind20,r                  2.88975062 [mEh]       1.81334589 [kcal/mol]       7.58703922 [kJ/mol]
      delta HF,r (2)               -0.56846623 [mEh]      -0.35671795 [kcal/mol]      -1.49250789 [kJ/mol]

    Dispersion                     -7.47524322 [mEh]      -4.69078594 [kcal/mol]     -19.62624836 [kJ/mol]
      Disp20                       -8.44809824 [mEh]      -5.30126168 [kcal/mol]     -22.18047888 [kJ/mol]
      Exch-Disp20                   0.97285503 [mEh]       0.61047575 [kcal/mol]       2.55423052 [kJ/mol]
      Disp20 (SS)                  -4.22404912 [mEh]      -2.65063084 [kcal/mol]     -11.09023944 [kJ/mol]
      Disp20 (OS)                  -4.22404912 [mEh]      -2.65063084 [kcal/mol]     -11.09023944 [kJ/mol]
      Exch-Disp20 (SS)              0.62663441 [mEh]       0.39321903 [kcal/mol]       1.64522842 [kJ/mol]
      Exch-Disp20 (OS)              0.34622062 [mEh]       0.21725672 [kcal/mol]       0.90900210 [kJ/mol]

  Total HF                          1.69459357 [mEh]       1.06337352 [kcal/mol]       4.44915481 [kJ/mol]
  Total SAPT0                      -5.78064965 [mEh]      -3.62741242 [kcal/mol]     -15.17709355 [kJ/mol]

  Special recipe for scaled SAPT0 (see Manual):
    Electrostatics sSAPT0          -5.08811306 [mEh]      -3.19283915 [kcal/mol]     -13.35883899 [kJ/mol]
    Exchange sSAPT0                 7.95354206 [mEh]       4.99092299 [kcal/mol]      20.88202181 [kJ/mol]
    Induction sSAPT0               -1.13927003 [mEh]      -0.71490274 [kcal/mol]      -2.99115306 [kJ/mol]
    Dispersion sSAPT0              -7.46461650 [mEh]      -4.68411757 [kcal/mol]     -19.59834792 [kJ/mol]
  Total sSAPT0                     -5.73845753 [mEh]      -3.60093646 [kcal/mol]     -15.06631816 [kJ/mol]
  --------------------------------------------------------------------------------------------------------

*** Psi4 exiting successfully. Buy a developer a beer!
