                               Psi4 1.3.2 release

  ==> Input File <==

--------------------------------------------------------------------------
# Any line starting with the # character is a comment line
#! Sample  computation

memory 22 gb

molecule Dimer {
0 1
 H   -0.367178    2.111301   -1.015861
 C    1.128661    0.504689   -0.744617
 C    0.223217    1.589965   -0.240615
 O    0.107772    1.901580    0.929964
 H    1.733027    0.928727   -1.554163
 C    2.001084   -0.131280    0.323143
 H    2.655339    0.630504    0.749975
 H    1.368759   -0.478057    1.140700
 H    0.480812   -0.237712   -1.226497
 C    2.824911   -1.283655   -0.236601
 H    2.177912   -2.066155   -0.636204
 H    3.473124   -0.945505   -1.046071
 H    3.454788   -1.730692    0.531439

 --
0 1
 C   -2.832200    0.277460   -0.480851
 C   -2.337095   -0.957775   -0.358209
 C   -1.544447   -1.436729    0.815839
 H   -3.411441    0.564695   -1.347499
 H   -2.672488    1.021282    0.289759
 H   -2.524510   -1.675205   -1.151176
 H   -0.589485   -1.860107    0.498071
 H   -1.347255   -0.623916    1.514053
 H   -2.078361   -2.227848    1.345231

units angstrom

no_reorient
symmetry c1
}

set globals{
  basis jun-cc-pvtz
}

energy('sapt0')

--------------------------------------------------------------------------

  //              Dimer HF             //
    Molecular point group: c1
  Charge       = 0
  Multiplicity = 1
  Basis Set: JUN-CC-PVTZ
    Blend: JUN-CC-PVTZ
  Basis Set: (JUN-CC-PVTZ AUX)
    Blend: JUN-CC-PVTZ-JKFIT
  @DF-RHF Final Energy:  -348.18659305722332
    Total Energy =                       -348.1865930572233196
  //            Monomer A HF           //
    Molecular point group: c1
  Multiplicity = 1
  Basis Set: JUN-CC-PVTZ
    Blend: JUN-CC-PVTZ
  Basis Set: (JUN-CC-PVTZ AUX)
    Blend: JUN-CC-PVTZ-JKFIT
  @DF-RHF Final Energy:  -231.07183817036054
    Total Energy =                       -231.0718381703605360
  //            Monomer B HF           //
    Molecular point group: c1

    Geometry (in Angstrom), charge = 0, multiplicity = 1:

       Center              X                  Y                   Z               Mass
    ------------   -----------------  -----------------  -----------------  -----------------
      Gh(H)          -0.346712819931     2.054094956027    -1.032412391877     1.007825032230
      Gh(C)           1.149126180069     0.447482956027    -0.761168391877    12.000000000000
      Gh(C)           0.243682180069     1.532758956027    -0.257166391877    12.000000000000
      Gh(O)           0.128237180069     1.844373956027     0.913412608123    15.994914619570
      Gh(H)           1.753492180069     0.871520956027    -1.570714391877     1.007825032230
      Gh(C)           2.021549180069    -0.188486043973     0.306591608123    12.000000000000
      Gh(H)           2.675804180069     0.573297956027     0.733423608123     1.007825032230
      Gh(H)           1.389224180069    -0.535263043973     1.124148608123     1.007825032230
      Gh(H)           0.501277180069    -0.294918043973    -1.243048391877     1.007825032230
      Gh(C)           2.845376180069    -1.340861043973    -0.253152391877    12.000000000000
      Gh(H)           2.198377180069    -2.123361043973    -0.652755391877     1.007825032230
      Gh(H)           3.493589180069    -1.002711043973    -1.062622391877     1.007825032230
      Gh(H)           3.475253180069    -1.787898043973     0.514887608123     1.007825032230
         C           -2.811734819931     0.220253956027    -0.497402391877    12.000000000000
         C           -2.316629819931    -1.014981043973    -0.374760391877    12.000000000000
         C           -1.523981819931    -1.493935043973     0.799287608123    12.000000000000
         H           -3.390975819931     0.507488956027    -1.364050391877     1.007825032230
         H           -2.652022819931     0.964075956027     0.273207608123     1.007825032230
         H           -2.504044819931    -1.732411043973    -1.167727391877     1.007825032230
         H           -0.569019819931    -1.917313043973     0.481519608123     1.007825032230
         H           -1.326789819931    -0.681122043973     1.497501608123     1.007825032230
         H           -2.057895819931    -2.285054043973     1.328679608123     1.007825032230

  Charge       = 0
  Multiplicity = 1
  Basis Set: JUN-CC-PVTZ
    Blend: JUN-CC-PVTZ
  Basis Set: (JUN-CC-PVTZ AUX)
    Blend: JUN-CC-PVTZ-JKFIT

    Orbital Energies [Eh]
    ---------------------

    Doubly Occupied:

       1A    -11.234571     2A    -11.220976     3A    -11.217622
       4A     -1.064660     5A     -0.932765     6A     -0.757980
       7A     -0.639848     8A     -0.582783     9A     -0.567970
      10A     -0.523423    11A     -0.493180    12A     -0.357773

  @DF-RHF Final Energy:  -117.11681760597889

   => Energetics <=

    Nuclear Repulsion Energy =             70.8451715561245834
    One-Electron Energy =                -296.7368754456093143
    Two-Electron Energy =                 108.7748862835058503
    Total Energy =                       -117.1168176059788948

  Dipole Moment: [D]
     X:     0.1859      Y:    -0.3376      Z:     0.1817     Total:     0.4261

    SAPT Results
  --------------------------------------------------------------------------------------------------------
    Electrostatics                 -4.93139403 [mEh]      -3.09449647 [kcal/mol]     -12.94737324 [kJ/mol]
      Elst10,r                     -4.93139403 [mEh]      -3.09449647 [kcal/mol]     -12.94737324 [kJ/mol]

    Exchange                        8.21071698 [mEh]       5.15230269 [kcal/mol]      21.55723447 [kJ/mol]
      Exch10                        8.21071698 [mEh]       5.15230269 [kcal/mol]      21.55723447 [kJ/mol]
      Exch10(S^2)                   8.18733731 [mEh]       5.13763173 [kcal/mol]      21.49585114 [kJ/mol]

    Induction                      -1.21660384 [mEh]      -0.76343043 [kcal/mol]      -3.19419293 [kJ/mol]
      Ind20,r                      -3.03423424 [mEh]      -1.90401073 [kcal/mol]      -7.96638091 [kJ/mol]
      Exch-Ind20,r                  2.46198088 [mEh]       1.54491633 [kcal/mol]       6.46392992 [kJ/mol]
      delta HF,r (2)               -0.64435048 [mEh]      -0.40433603 [kcal/mol]      -1.69174194 [kJ/mol]

    Dispersion                     -8.28035331 [mEh]      -5.19600015 [kcal/mol]     -21.74006462 [kJ/mol]
      Disp20                       -9.22944495 [mEh]      -5.79156414 [kcal/mol]     -24.23190437 [kJ/mol]
      Exch-Disp20                   0.94909164 [mEh]       0.59556399 [kcal/mol]       2.49183975 [kJ/mol]
      Disp20 (SS)                  -4.61472247 [mEh]      -2.89578207 [kcal/mol]     -12.11595218 [kJ/mol]
      Disp20 (OS)                  -4.61472247 [mEh]      -2.89578207 [kcal/mol]     -12.11595218 [kJ/mol]
      Exch-Disp20 (SS)              0.61952901 [mEh]       0.38876032 [kcal/mol]       1.62657320 [kJ/mol]
      Exch-Disp20 (OS)              0.32956263 [mEh]       0.20680367 [kcal/mol]       0.86526655 [kJ/mol]

  Total HF                          2.06271912 [mEh]       1.29437579 [kcal/mol]       5.41566829 [kJ/mol]
  Total SAPT0                      -6.21763419 [mEh]      -3.90162436 [kcal/mol]     -16.32439632 [kJ/mol]

  Special recipe for scaled SAPT0 (see Manual):
    Electrostatics sSAPT0          -4.93139403 [mEh]      -3.09449647 [kcal/mol]     -12.94737324 [kJ/mol]
    Exchange sSAPT0                 8.21071698 [mEh]       5.15230269 [kcal/mol]      21.55723447 [kJ/mol]
    Induction sSAPT0               -1.19545233 [mEh]      -0.75015766 [kcal/mol]      -3.13865966 [kJ/mol]
    Dispersion sSAPT0              -8.27219942 [mEh]      -5.19088351 [kcal/mol]     -21.71865659 [kJ/mol]
  Total sSAPT0                     -6.18832880 [mEh]      -3.88323495 [kcal/mol]     -16.24745502 [kJ/mol]
  --------------------------------------------------------------------------------------------------------

*** Psi4 exiting successfully. Buy a developer a beer!
