                               Psi4 1.3.2 release

  ==> Input File <==

--------------------------------------------------------------------------
# Any line starting with the # character is a comment line
#! Sample  computation

memory 22 gb

molecule Dimer {
0 1
 C -3.685195   -0.863058   -0.000194
 C -2.944734    0.462163   -0.000285
 C -1.450883    0.302881   -0.000056
 O -0.889650   -0.789322    0.000032
 O -0.811129    1.461772   -0.000196
 H -3.427508   -1.450946    0.878080
 H -4.760282   -0.693591   -0.000356
 H -3.427283   -1.451197   -0.878234
 H -3.200713    1.069189    0.869759
 H -3.200499    1.068938   -0.870572
 H  0.171607    1.294349   -0.000137

 --
0 1
 C  2.396752   -0.047148    0.000166
 O  1.838188    1.046084   -0.000084
 O  1.754602   -1.204509    0.000316
 H  0.771622   -1.034655    0.000219
 C  3.885019   -0.208653    0.000306
 H  4.362031    0.764421   -0.000017
 H  4.184526   -0.777581    0.878306
 H  4.184649   -0.778247   -0.877216

units angstrom

no_reorient
symmetry c1
}

set globals{
  basis jun-cc-pvtz
}

energy('sapt0')

--------------------------------------------------------------------------

  //              Dimer HF             //
    Molecular point group: c1
  Charge       = 0
  Multiplicity = 1
  Basis Set: JUN-CC-PVTZ
    Blend: JUN-CC-PVTZ
  Basis Set: (JUN-CC-PVTZ AUX)
    Blend: JUN-CC-PVTZ-JKFIT
  @DF-RHF Final Energy:  -494.87634377194820
    Total Energy =                       -494.8763437719481999
  //            Monomer A HF           //
    Molecular point group: c1
  Multiplicity = 1
  Basis Set: JUN-CC-PVTZ
    Blend: JUN-CC-PVTZ
  Basis Set: (JUN-CC-PVTZ AUX)
    Blend: JUN-CC-PVTZ-JKFIT
  @DF-RHF Final Energy:  -266.94967917247732
    Total Energy =                       -266.9496791724773175
  //            Monomer B HF           //
    Molecular point group: c1

    Geometry (in Angstrom), charge = 0, multiplicity = 1:

       Center              X                  Y                   Z               Mass
    ------------   -----------------  -----------------  -----------------  -----------------
      Gh(C)          -3.717257541677    -0.877761492780    -0.000195210966    12.000000000000
      Gh(C)          -2.976796541677     0.447459507220    -0.000286210966    12.000000000000
      Gh(C)          -1.482945541677     0.288177507220    -0.000057210966    12.000000000000
      Gh(O)          -0.921712541677    -0.804025492780     0.000030789034    15.994914619570
      Gh(O)          -0.843191541677     1.447068507220    -0.000197210966    15.994914619570
      Gh(H)          -3.459570541677    -1.465649492780     0.878078789034     1.007825032230
      Gh(H)          -4.792344541677    -0.708294492780    -0.000357210966     1.007825032230
      Gh(H)          -3.459345541677    -1.465900492780    -0.878235210966     1.007825032230
      Gh(H)          -3.232775541677     1.054485507220     0.869757789034     1.007825032230
      Gh(H)          -3.232561541677     1.054234507220    -0.870573210966     1.007825032230
      Gh(H)           0.139544458323     1.279645507220    -0.000138210966     1.007825032230
         C            2.364689458323    -0.061851492780     0.000164789034    12.000000000000
         O            1.806125458323     1.031380507220    -0.000085210966    15.994914619570
         O            1.722539458323    -1.219212492780     0.000314789034    15.994914619570
         H            0.739559458323    -1.049358492780     0.000217789034     1.007825032230
         C            3.852956458323    -0.223356492780     0.000304789034    12.000000000000
         H            4.329968458323     0.749717507220    -0.000018210966     1.007825032230
         H            4.152463458323    -0.792284492780     0.878304789034     1.007825032230
         H            4.152586458323    -0.792950492780    -0.877217210966     1.007825032230

  Charge       = 0
  Multiplicity = 1
  Basis Set: JUN-CC-PVTZ
    Blend: JUN-CC-PVTZ
  Basis Set: (JUN-CC-PVTZ AUX)
    Blend: JUN-CC-PVTZ-JKFIT

    Orbital Energies [Eh]
    ---------------------

    Doubly Occupied:

       1A    -20.625605     2A    -20.544970     3A    -11.389974
       4A    -11.244213     5A     -1.470855     6A     -1.352890
       7A     -1.028888     8A     -0.833723     9A     -0.704500
      10A     -0.681917    11A     -0.655975    12A     -0.579799
      13A     -0.572414    14A     -0.565103    15A     -0.476780
      16A     -0.452104

  @DF-RHF Final Energy:  -227.90139666270949

   => Energetics <=

    Nuclear Repulsion Energy =            121.2411850073433754
    One-Electron Energy =                -551.9257429282920384
    Two-Electron Energy =                 202.7831612582392040
    Total Energy =                       -227.9013966627094874

  Dipole Moment: [D]
     X:     0.8389      Y:    -2.0920      Z:     0.0005     Total:     2.2539

    SAPT Results
  --------------------------------------------------------------------------------------------------------
    Electrostatics                -53.90724743 [mEh]     -33.82730847 [kcal/mol]    -141.53345864 [kJ/mol]
      Elst10,r                    -53.90724743 [mEh]     -33.82730847 [kcal/mol]    -141.53345864 [kJ/mol]

    Exchange                       55.18391674 [mEh]      34.62843056 [kcal/mol]     144.88535345 [kJ/mol]
      Exch10                       55.18391674 [mEh]      34.62843056 [kcal/mol]     144.88535345 [kJ/mol]
      Exch10(S^2)                  54.22185971 [mEh]      34.02473065 [kcal/mol]     142.35947305 [kJ/mol]

    Induction                     -26.54460607 [mEh]     -16.65699179 [kcal/mol]     -69.69285363 [kJ/mol]
      Ind20,r                     -31.92164708 [mEh]     -20.03113596 [kcal/mol]     -83.81027287 [kJ/mol]
      Exch-Ind20,r                 16.83383777 [mEh]      10.56339268 [kcal/mol]      44.19723499 [kJ/mol]
      delta HF,r (2)              -11.45679676 [mEh]      -7.18924851 [kcal/mol]     -30.07981575 [kJ/mol]

    Dispersion                    -13.51536508 [mEh]      -8.48101963 [kcal/mol]     -35.48458612 [kJ/mol]
      Disp20                      -16.98983383 [mEh]     -10.66128169 [kcal/mol]     -44.60680257 [kJ/mol]
      Exch-Disp20                   3.47446875 [mEh]       2.18026206 [kcal/mol]       9.12221645 [kJ/mol]
      Disp20 (SS)                  -8.49491691 [mEh]      -5.33064084 [kcal/mol]     -22.30340129 [kJ/mol]
      Disp20 (OS)                  -8.49491691 [mEh]      -5.33064084 [kcal/mol]     -22.30340129 [kJ/mol]
      Exch-Disp20 (SS)              2.18232863 [mEh]       1.36943189 [kcal/mol]       5.72970302 [kJ/mol]
      Exch-Disp20 (OS)              1.29214013 [mEh]       0.81083017 [kcal/mol]       3.39251344 [kJ/mol]

  Total HF                        -25.26793676 [mEh]     -15.85586970 [kcal/mol]     -66.34095883 [kJ/mol]
  Total SAPT0                     -38.78330184 [mEh]     -24.33688933 [kcal/mol]    -101.82554495 [kJ/mol]

  Special recipe for scaled SAPT0 (see Manual):
    Electrostatics sSAPT0         -53.90724743 [mEh]     -33.82730847 [kcal/mol]    -141.53345864 [kJ/mol]
    Exchange sSAPT0                55.18391674 [mEh]      34.62843056 [kcal/mol]     144.88535345 [kJ/mol]
    Induction sSAPT0              -25.63256647 [mEh]     -16.08467830 [kcal/mol]     -67.29829401 [kJ/mol]
    Dispersion sSAPT0             -13.32712202 [mEh]      -8.36289533 [kcal/mol]     -34.99035404 [kJ/mol]
  Total sSAPT0                    -37.68301919 [mEh]     -23.64645154 [kcal/mol]     -98.93675324 [kJ/mol]
  --------------------------------------------------------------------------------------------------------

*** Psi4 exiting successfully. Buy a developer a beer!
