                               Psi4 1.3.2 release

  ==> Input File <==

--------------------------------------------------------------------------
# Any line starting with the # character is a comment line
#! Sample  computation

memory 22 gb

molecule Dimer {

0 1
 C   -1.93137600    0.06074300   -0.00100200
 O   -1.24308200    1.07715800   -0.00103700
 O   -1.43596600   -1.16692500   -0.00137900
 H   -0.44000500   -1.11891300   -0.00070600
 C   -3.42819600    0.08196000    0.00135100
 H   -3.78305400    1.10584400   -0.01596700
 H   -3.79750000   -0.46337100   -0.86486000
 H   -3.79192300   -0.42946400    0.89057900

 --
0 1
 C    1.93140100   -0.06075400    0.00034800
 O    1.24304100   -1.07711300    0.00040000
 O    1.43596400    1.16692600   -0.00011900
 H    0.43994500    1.11913800   -0.00052600
 C    3.42822400   -0.08202800    0.00053000
 H    3.78304600   -1.10606900    0.00313500
 H    3.79469100    0.44406900   -0.87884500
 H    3.79483600    0.44887000    0.87691700

units angstrom

no_reorient
symmetry c1
}

set globals{
  basis jun-cc-pVTZ
  scf_type DF
  freeze_core True
}

energy('sapt0')

--------------------------------------------------------------------------

  //              Dimer HF             //
    Molecular point group: c1
  Charge       = 0
  Multiplicity = 1
  Basis Set: JUN-CC-PVTZ
    Blend: JUN-CC-PVTZ
  Basis Set: (JUN-CC-PVTZ AUX)
    Blend: JUN-CC-PVTZ-JKFIT
  @DF-RHF Final Energy:  -455.82826263862961
    Total Energy =                       -455.8282626386296670
  //            Monomer A HF           //
    Molecular point group: c1
  Multiplicity = 1
  Basis Set: JUN-CC-PVTZ
    Blend: JUN-CC-PVTZ
  Basis Set: (JUN-CC-PVTZ AUX)
    Blend: JUN-CC-PVTZ-JKFIT
  @DF-RHF Final Energy:  -227.90144076967056
    Total Energy =                       -227.9014407696705575
  //            Monomer B HF           //
    Molecular point group: c1

    Geometry (in Angstrom), charge = 0, multiplicity = 1:

       Center              X                  Y                   Z               Mass
    ------------   -----------------  -----------------  -----------------  -----------------
      Gh(C)          -1.931375870882     0.060743894853    -0.000921844655    12.000000000000
      Gh(O)          -1.243081870882     1.077158894853    -0.000956844655    15.994914619570
      Gh(O)          -1.435965870882    -1.166924105147    -0.001298844655    15.994914619570
      Gh(H)          -0.440004870882    -1.118912105147    -0.000625844655     1.007825032230
      Gh(C)          -3.428195870882     0.081960894853     0.001431155345    12.000000000000
      Gh(H)          -3.783053870882     1.105844894853    -0.015886844655     1.007825032230
      Gh(H)          -3.797499870882    -0.463370105147    -0.864779844655     1.007825032230
      Gh(H)          -3.791922870882    -0.429463105147     0.890659155345     1.007825032230
         C            1.931401129118    -0.060753105147     0.000428155345    12.000000000000
         O            1.243041129118    -1.077112105147     0.000480155345    15.994914619570
         O            1.435964129118     1.166926894853    -0.000038844655    15.994914619570
         H            0.439945129118     1.119138894853    -0.000445844655     1.007825032230
         C            3.428224129118    -0.082027105147     0.000610155345    12.000000000000
         H            3.783046129118    -1.106068105147     0.003215155345     1.007825032230
         H            3.794691129118     0.444069894853    -0.878764844655     1.007825032230
         H            3.794836129118     0.448870894853     0.876997155345     1.007825032230

  Charge       = 0
  Multiplicity = 1
  Basis Set: JUN-CC-PVTZ
    Blend: JUN-CC-PVTZ
  Basis Set: (JUN-CC-PVTZ AUX)
    Blend: JUN-CC-PVTZ-JKFIT

    Orbital Energies [Eh]
    ---------------------

    Doubly Occupied:

       1A    -20.625510     2A    -20.545048     3A    -11.389996
       4A    -11.244240     5A     -1.470780     6A     -1.352988
       7A     -1.028923     8A     -0.833699     9A     -0.704513
      10A     -0.681874    11A     -0.655948    12A     -0.579809
      13A     -0.572469    14A     -0.565088    15A     -0.476862
      16A     -0.452148

  @DF-RHF Final Energy:  -227.90143816188129

   => Energetics <=

    Nuclear Repulsion Energy =            121.2398569976583929
    One-Electron Energy =                -551.9228021730001501
    Two-Electron Energy =                 202.7815070134604412
    Total Energy =                       -227.9014381618812877

  Dipole Moment: [D]
     X:     1.0897      Y:     1.9717      Z:    -0.0009     Total:     2.2528

    SAPT Results
  --------------------------------------------------------------------------------------------------------
    Electrostatics                -53.75236248 [mEh]     -33.73011669 [kcal/mol]    -141.12680825 [kJ/mol]
      Elst10,r                    -53.75236248 [mEh]     -33.73011669 [kcal/mol]    -141.12680825 [kJ/mol]

    Exchange                       54.82110241 [mEh]      34.40076113 [kcal/mol]     143.93278456 [kJ/mol]
      Exch10                       54.82110241 [mEh]      34.40076113 [kcal/mol]     143.93278456 [kJ/mol]
      Exch10(S^2)                  53.87150611 [mEh]      33.80488045 [kcal/mol]     141.43961980 [kJ/mol]

    Induction                     -26.45244701 [mEh]     -16.59916111 [kcal/mol]     -69.45089006 [kJ/mol]
      Ind20,r                     -31.74468594 [mEh]     -19.92009117 [kcal/mol]     -83.34566147 [kJ/mol]
      Exch-Ind20,r                 16.68958634 [mEh]      10.47287354 [kcal/mol]      43.81850290 [kJ/mol]
      delta HF,r (2)              -11.39734741 [mEh]      -7.15194348 [kcal/mol]     -29.92373150 [kJ/mol]

    Dispersion                    -13.35030678 [mEh]      -8.37744398 [kcal/mol]     -35.05122562 [kJ/mol]
      Disp20                      -16.77966981 [mEh]     -10.52940178 [kcal/mol]     -44.05501703 [kJ/mol]
      Exch-Disp20                   3.42936303 [mEh]       2.15195779 [kcal/mol]       9.00379141 [kJ/mol]
      Disp20 (SS)                  -8.38983491 [mEh]      -5.26470089 [kcal/mol]     -22.02750851 [kJ/mol]
      Disp20 (OS)                  -8.38983491 [mEh]      -5.26470089 [kcal/mol]     -22.02750851 [kJ/mol]
      Exch-Disp20 (SS)              2.15539011 [mEh]       1.35252772 [kcal/mol]       5.65897597 [kJ/mol]
      Exch-Disp20 (OS)              1.27397292 [mEh]       0.79943008 [kcal/mol]       3.34481544 [kJ/mol]

  Total HF                        -25.38370708 [mEh]     -15.92851667 [kcal/mol]     -66.64491375 [kJ/mol]
  Total SAPT0                     -38.73401386 [mEh]     -24.30596065 [kcal/mol]    -101.69613937 [kJ/mol]

  Special recipe for scaled SAPT0 (see Manual):
    Electrostatics sSAPT0         -53.75236248 [mEh]     -33.73011669 [kcal/mol]    -141.12680825 [kJ/mol]
    Exchange sSAPT0                54.82110241 [mEh]      34.40076113 [kcal/mol]     143.93278456 [kJ/mol]
    Induction sSAPT0              -25.55423352 [mEh]     -16.03552363 [kcal/mol]     -67.09263087 [kJ/mol]
    Dispersion sSAPT0             -13.16574258 [mEh]      -8.26162820 [kcal/mol]     -34.56665239 [kJ/mol]
  Total sSAPT0                    -37.65123617 [mEh]     -23.62650740 [kcal/mol]     -98.85330695 [kJ/mol]
  --------------------------------------------------------------------------------------------------------

*** Psi4 exiting successfully. Buy a developer a beer!
