                               Psi4 1.3.2 release

  ==> Input File <==

--------------------------------------------------------------------------
# Any line starting with the # character is a comment line
#! Sample  computation

memory 22 gb

molecule Dimer {
0 1
 C -3.199278   -0.788116    0.000038
 C -2.418675    0.513841    0.000035
 C -0.930989    0.309213    0.000006
 O -0.403022   -0.799483   -0.000051
 O -0.256641    1.449050   -0.000043
 H -2.960007   -1.383701    0.878307
 H -4.268478   -0.585262    0.000066
 H -2.960050   -1.383682   -0.878255
 H -2.655493    1.128482    0.870170
 H -2.655536    1.128500   -0.870077
 H  0.718357    1.255873   -0.000130

 --
0 1
 C  2.879893   -0.183539   -0.000004
 O  2.210925   -1.314878   -0.000052
 O  2.399646    0.940616    0.000065
 H  3.958325   -0.353680    0.000256
 H  1.229913   -1.117368   -0.000142

units angstrom

no_reorient
symmetry c1
}

set globals{
  basis jun-cc-pvtz
}

energy('sapt0')

--------------------------------------------------------------------------

  //              Dimer HF             //
    Molecular point group: c1
  Charge       = 0
  Multiplicity = 1
  Basis Set: JUN-CC-PVTZ
    Blend: JUN-CC-PVTZ
  Basis Set: (JUN-CC-PVTZ AUX)
    Blend: JUN-CC-PVTZ-JKFIT
  @DF-RHF Final Energy:  -455.81480719651734
    Total Energy =                       -455.8148071965173358
  //            Monomer A HF           //
    Molecular point group: c1
  Multiplicity = 1
  Basis Set: JUN-CC-PVTZ
    Blend: JUN-CC-PVTZ
  Basis Set: (JUN-CC-PVTZ AUX)
    Blend: JUN-CC-PVTZ-JKFIT
  @DF-RHF Final Energy:  -266.94990223474122
    Total Energy =                       -266.9499022347412165
  //            Monomer B HF           //
    Molecular point group: c1

    Geometry (in Angstrom), charge = 0, multiplicity = 1:

       Center              X                  Y                   Z               Mass
    ------------   -----------------  -----------------  -----------------  -----------------
      Gh(C)          -3.278398585852    -0.798938627243     0.000039658268    12.000000000000
      Gh(C)          -2.497795585852     0.503018372757     0.000036658268    12.000000000000
      Gh(C)          -1.010109585852     0.298390372757     0.000007658268    12.000000000000
      Gh(O)          -0.482142585852    -0.810305627243    -0.000049341732    15.994914619570
      Gh(O)          -0.335761585852     1.438227372757    -0.000041341732    15.994914619570
      Gh(H)          -3.039127585852    -1.394523627243     0.878308658268     1.007825032230
      Gh(H)          -4.347598585852    -0.596084627243     0.000067658268     1.007825032230
      Gh(H)          -3.039170585852    -1.394504627243    -0.878253341732     1.007825032230
      Gh(H)          -2.734613585852     1.117659372757     0.870171658268     1.007825032230
      Gh(H)          -2.734656585852     1.117677372757    -0.870075341732     1.007825032230
      Gh(H)           0.639236414148     1.245050372757    -0.000128341732     1.007825032230
         C            2.800772414148    -0.194361627243    -0.000002341732    12.000000000000
         O            2.131804414148    -1.325700627243    -0.000050341732    15.994914619570
         O            2.320525414148     0.929793372757     0.000066658268    15.994914619570
         H            3.879204414148    -0.364502627243     0.000257658268     1.007825032230
         H            1.150792414148    -1.128190627243    -0.000140341732     1.007825032230

  Charge       = 0
  Multiplicity = 1
  Basis Set: JUN-CC-PVTZ
    Blend: JUN-CC-PVTZ
  Basis Set: (JUN-CC-PVTZ AUX)
    Blend: JUN-CC-PVTZ-JKFIT

    Orbital Energies [Eh]
    ---------------------

    Doubly Occupied:

       1A    -20.639421     2A    -20.561288     3A    -11.396975
       4A     -1.481935     5A     -1.367328     6A     -0.901183
       7A     -0.731346     8A     -0.711253     9A     -0.644149
      10A     -0.596192    11A     -0.489871    12A     -0.470525

  @DF-RHF Final Energy:  -188.83982154388170

   => Energetics <=

    Nuclear Repulsion Energy =             70.0683993228190900
    One-Electron Energy =                -397.8335106830941754
    Two-Electron Energy =                 138.9252898163934162
    Total Energy =                       -188.8398215438816976

  Dipole Moment: [D]
     X:     0.0184      Y:    -2.0840      Z:    -0.0002     Total:     2.0841

    SAPT Results
  --------------------------------------------------------------------------------------------------------
    Electrostatics                -52.90108645 [mEh]     -33.19593292 [kcal/mol]    -138.89178334 [kJ/mol]
      Elst10,r                    -52.90108645 [mEh]     -33.19593292 [kcal/mol]    -138.89178334 [kJ/mol]

    Exchange                       54.24719126 [mEh]      34.04062644 [kcal/mol]     142.42598102 [kJ/mol]
      Exch10                       54.24719126 [mEh]      34.04062644 [kcal/mol]     142.42598102 [kJ/mol]
      Exch10(S^2)                  53.30613387 [mEh]      33.45010401 [kcal/mol]     139.95523519 [kJ/mol]

    Induction                     -26.42952270 [mEh]     -16.58477588 [kcal/mol]     -69.39070229 [kJ/mol]
      Ind20,r                     -31.63376597 [mEh]     -19.85048784 [kcal/mol]     -83.05444112 [kJ/mol]
      Exch-Ind20,r                 16.58885831 [mEh]      10.40966575 [kcal/mol]      43.55404151 [kJ/mol]
      delta HF,r (2)              -11.38461504 [mEh]      -7.14395379 [kcal/mol]     -29.89030267 [kJ/mol]

    Dispersion                    -13.20303006 [mEh]      -8.28502644 [kcal/mol]     -34.66455065 [kJ/mol]
      Disp20                      -16.57299994 [mEh]     -10.39971447 [kcal/mol]     -43.51240534 [kJ/mol]
      Exch-Disp20                   3.36996988 [mEh]       2.11468802 [kcal/mol]       8.84785469 [kJ/mol]
      Disp20 (SS)                  -8.28649997 [mEh]      -5.19985723 [kcal/mol]     -21.75620267 [kJ/mol]
      Disp20 (OS)                  -8.28649997 [mEh]      -5.19985723 [kcal/mol]     -21.75620267 [kJ/mol]
      Exch-Disp20 (SS)              2.11904942 [mEh]       1.32972359 [kcal/mol]       5.56356348 [kJ/mol]
      Exch-Disp20 (OS)              1.25092046 [mEh]       0.78496444 [kcal/mol]       3.28429121 [kJ/mol]

  Total HF                        -25.08341789 [mEh]     -15.74008236 [kcal/mol]     -65.85650461 [kJ/mol]
  Total SAPT0                     -38.28644795 [mEh]     -24.02510881 [kcal/mol]    -100.52105525 [kJ/mol]

  Special recipe for scaled SAPT0 (see Manual):
    Electrostatics sSAPT0         -52.90108645 [mEh]     -33.19593292 [kcal/mol]    -138.89178334 [kJ/mol]
    Exchange sSAPT0                54.24719126 [mEh]      34.04062644 [kcal/mol]     142.42598102 [kJ/mol]
    Induction sSAPT0              -25.53535067 [mEh]     -16.02367446 [kcal/mol]     -67.04305396 [kJ/mol]
    Dispersion sSAPT0             -13.02138207 [mEh]      -8.17104061 [kcal/mol]     -34.18763391 [kJ/mol]
  Total sSAPT0                    -37.21062794 [mEh]     -23.35002155 [kcal/mol]     -97.69649019 [kJ/mol]
  --------------------------------------------------------------------------------------------------------

*** Psi4 exiting successfully. Buy a developer a beer!
