                               Psi4 1.3.2 release

  ==> Input File <==

--------------------------------------------------------------------------
# Any line starting with the # character is a comment line
#! Sample  computation

memory 22 gb

molecule Dimer {
0 1
 C  1.411101   -0.069037    0.000025
 O  0.701996   -1.071377   -0.000045
 O  0.941297    1.168774    0.000157
 H -0.052898    1.144825    0.000268
 C  2.906481   -0.121852   -0.000085
 H  3.239493   -1.153063   -0.000604
 H  3.283958    0.399403   -0.877591
 H  3.283993    0.398484    0.877956

 --
0 1
 C  -2.425974    0.100299   -0.000087
 O  -1.962851   -1.129534   -0.000068
 O  -1.758451    1.124534    0.000077
 H  -3.517520    0.119463   -0.000160
 H  -0.962598   -1.104745    0.000049

units angstrom

no_reorient
symmetry c1
}

set globals{
  basis jun-cc-pvtz
}

energy('sapt0')

--------------------------------------------------------------------------

  //              Dimer HF             //
    Molecular point group: c1
  Charge       = 0
  Multiplicity = 1
  Basis Set: JUN-CC-PVTZ
    Blend: JUN-CC-PVTZ
  Basis Set: (JUN-CC-PVTZ AUX)
    Blend: JUN-CC-PVTZ-JKFIT
  @DF-RHF Final Energy:  -416.76666463082466
    Total Energy =                       -416.7666646308246641
  //            Monomer A HF           //
    Molecular point group: c1
  Multiplicity = 1
  Basis Set: JUN-CC-PVTZ
    Blend: JUN-CC-PVTZ
  Basis Set: (JUN-CC-PVTZ AUX)
    Blend: JUN-CC-PVTZ-JKFIT
  @DF-RHF Final Energy:  -227.90160686476736
    Total Energy =                       -227.9016068647673592
  //            Monomer B HF           //
    Molecular point group: c1

    Geometry (in Angstrom), charge = 0, multiplicity = 1:

       Center              X                  Y                   Z               Mass
    ------------   -----------------  -----------------  -----------------  -----------------
      Gh(C)           1.460358257494    -0.070863317884     0.000024163012    12.000000000000
      Gh(O)           0.751253257494    -1.073203317884    -0.000045836988    15.994914619570
      Gh(O)           0.990554257494     1.166947682116     0.000156163012    15.994914619570
      Gh(H)          -0.003640742506     1.142998682116     0.000267163012     1.007825032230
      Gh(C)           2.955738257494    -0.123678317884    -0.000085836988    12.000000000000
      Gh(H)           3.288750257494    -1.154889317884    -0.000604836988     1.007825032230
      Gh(H)           3.333215257494     0.397576682116    -0.877591836988     1.007825032230
      Gh(H)           3.333250257494     0.396657682116     0.877955163012     1.007825032230
         C           -2.376716742506     0.098472682116    -0.000087836988    12.000000000000
         O           -1.913593742506    -1.131360317884    -0.000068836988    15.994914619570
         O           -1.709193742506     1.122707682116     0.000076163012    15.994914619570
         H           -3.468262742506     0.117636682116    -0.000160836988     1.007825032230
         H           -0.913340742506    -1.106571317884     0.000048163012     1.007825032230

  Charge       = 0
  Multiplicity = 1
  Basis Set: JUN-CC-PVTZ
    Blend: JUN-CC-PVTZ
  Basis Set: (JUN-CC-PVTZ AUX)
    Blend: JUN-CC-PVTZ-JKFIT

    Orbital Energies [Eh]
    ---------------------

    Doubly Occupied:

       1A    -20.639457     2A    -20.561255     3A    -11.396973
       4A     -1.482032     5A     -1.367277     6A     -0.901270
       7A     -0.731400     8A     -0.711276     9A     -0.644204
      10A     -0.596174    11A     -0.489831    12A     -0.470509

  @DF-RHF Final Energy:  -188.83980966734975

   => Energetics <=

    Nuclear Repulsion Energy =             70.0706369845862156
    One-Electron Energy =                -397.8375782955217232
    Two-Electron Energy =                 138.9271316435857671
    Total Energy =                       -188.8398096673497548

  Dipole Moment: [D]
     X:    -0.3790      Y:    -2.0510      Z:    -0.0002     Total:     2.0857

    SAPT Results
  --------------------------------------------------------------------------------------------------------
    Electrostatics                -53.09280767 [mEh]     -33.31623980 [kcal/mol]    -139.39514734 [kJ/mol]
      Elst10,r                    -53.09280767 [mEh]     -33.31623980 [kcal/mol]    -139.39514734 [kJ/mol]

    Exchange                       54.45470306 [mEh]      34.17084206 [kcal/mol]     142.97080318 [kJ/mol]
      Exch10                       54.45470306 [mEh]      34.17084206 [kcal/mol]     142.97080318 [kJ/mol]
      Exch10(S^2)                  53.50874477 [mEh]      33.57724427 [kcal/mol]     140.48719005 [kJ/mol]

    Induction                     -26.60999409 [mEh]     -16.69802339 [kcal/mol]     -69.86452986 [kJ/mol]
      Ind20,r                     -31.78575782 [mEh]     -19.94586416 [kcal/mol]     -83.45349567 [kJ/mol]
      Exch-Ind20,r                 16.63399536 [mEh]      10.43798968 [kcal/mol]      43.67254880 [kJ/mol]
      delta HF,r (2)              -11.45823163 [mEh]      -7.19014890 [kcal/mol]     -30.08358300 [kJ/mol]

    Dispersion                    -13.14498670 [mEh]      -8.24860369 [kcal/mol]     -34.51215784 [kJ/mol]
      Disp20                      -16.51034740 [mEh]     -10.36039941 [kcal/mol]     -43.34791112 [kJ/mol]
      Exch-Disp20                   3.36536069 [mEh]       2.11179572 [kcal/mol]       8.83575328 [kJ/mol]
      Disp20 (SS)                  -8.25517370 [mEh]      -5.18019970 [kcal/mol]     -21.67395556 [kJ/mol]
      Disp20 (OS)                  -8.25517370 [mEh]      -5.18019970 [kcal/mol]     -21.67395556 [kJ/mol]
      Exch-Disp20 (SS)              2.11657381 [mEh]       1.32817012 [kcal/mol]       5.55706378 [kJ/mol]
      Exch-Disp20 (OS)              1.24878688 [mEh]       0.78362560 [kcal/mol]       3.27868950 [kJ/mol]

  Total HF                        -25.24809871 [mEh]     -15.84342113 [kcal/mol]     -66.28887402 [kJ/mol]
  Total SAPT0                     -38.39308541 [mEh]     -24.09202482 [kcal/mol]    -100.80103186 [kJ/mol]

  Special recipe for scaled SAPT0 (see Manual):
    Electrostatics sSAPT0         -53.09280767 [mEh]     -33.31623980 [kcal/mol]    -139.39514734 [kJ/mol]
    Exchange sSAPT0                54.45470306 [mEh]      34.17084206 [kcal/mol]     142.97080318 [kJ/mol]
    Induction sSAPT0              -25.71211028 [mEh]     -16.13459279 [kcal/mol]     -67.50713625 [kJ/mol]
    Dispersion sSAPT0             -12.96332843 [mEh]      -8.13461140 [kcal/mol]     -34.03521411 [kJ/mol]
  Total sSAPT0                    -37.31354333 [mEh]     -23.41460194 [kcal/mol]     -97.96669452 [kJ/mol]
  --------------------------------------------------------------------------------------------------------

*** Psi4 exiting successfully. Buy a developer a beer!
