                               Psi4 1.3.2 release

  ==> Input File <==

--------------------------------------------------------------------------
# Any line starting with the # character is a comment line
#! Sample  computation

memory 22 gb

molecule Dimer {

0 1
 C    1.90238800   -0.16919700    0.00095200
 O    1.50503500    1.08415400    0.00015200
 O    1.18245600   -1.15719500   -0.00113200
 H    2.99111900   -0.24500400    0.00384800
 H    0.50829800    1.11598700   -0.00145300

 --
0 1
 C    -1.90288300    0.16858700    0.00095100
 O    -1.50349300   -1.08406800    0.00026600
 O    -1.18378500    1.15724800   -0.00114900
 H    -2.99169900    0.24329600    0.00363000
 H    -0.50645100   -1.11172500   -0.00254400

units angstrom

no_reorient
symmetry c1
}

set globals{
  basis jun-cc-pVTZ
  scf_type DF
  freeze_core True
}

energy('sapt0')

--------------------------------------------------------------------------

  //              Dimer HF             //
    Molecular point group: c1
  Charge       = 0
  Multiplicity = 1
  Basis Set: JUN-CC-PVTZ
    Blend: JUN-CC-PVTZ
  Basis Set: (JUN-CC-PVTZ AUX)
    Blend: JUN-CC-PVTZ-JKFIT
  @DF-RHF Final Energy:  -377.70483548983162
    Total Energy =                       -377.7048354898316234
  //            Monomer A HF           //
    Molecular point group: c1
  Multiplicity = 1
  Basis Set: JUN-CC-PVTZ
    Blend: JUN-CC-PVTZ
  Basis Set: (JUN-CC-PVTZ AUX)
    Blend: JUN-CC-PVTZ-JKFIT
  @DF-RHF Final Energy:  -188.84008830433856
    Total Energy =                       -188.8400883043385647
  //            Monomer B HF           //
    Molecular point group: c1

    Geometry (in Angstrom), charge = 0, multiplicity = 1:

       Center              X                  Y                   Z               Mass
    ------------   -----------------  -----------------  -----------------  -----------------
      Gh(C)           1.902401652383    -0.169169582377     0.000989542126    12.000000000000
      Gh(O)           1.505048652383     1.084181417623     0.000189542126    15.994914619570
      Gh(O)           1.182469652383    -1.157167582377    -0.001094457874    15.994914619570
      Gh(H)           2.991132652383    -0.244976582377     0.003885542126     1.007825032230
      Gh(H)           0.508311652383     1.116014417623    -0.001415457874     1.007825032230
         C           -1.902869347617     0.168614417623     0.000988542126    12.000000000000
         O           -1.503479347617    -1.084040582377     0.000303542126    15.994914619570
         O           -1.183771347617     1.157275417623    -0.001111457874    15.994914619570
         H           -2.991685347617     0.243323417623     0.003667542126     1.007825032230
         H           -0.506437347617    -1.111697582377    -0.002506457874     1.007825032230

  Charge       = 0
  Multiplicity = 1
  Basis Set: JUN-CC-PVTZ
    Blend: JUN-CC-PVTZ
  Basis Set: (JUN-CC-PVTZ AUX)
    Blend: JUN-CC-PVTZ-JKFIT

    Orbital Energies [Eh]
    ---------------------

    Doubly Occupied:

       1A    -20.639209     2A    -20.561442     3A    -11.397093
       4A     -1.482188     5A     -1.367543     6A     -0.901921
       7A     -0.731467     8A     -0.711579     9A     -0.644139
      10A     -0.596497    11A     -0.489995    12A     -0.470632

  @DF-RHF Final Energy:  -188.84008031338425

   => Energetics <=

    Nuclear Repulsion Energy =             70.0722409739369994
    One-Electron Energy =                -397.8372288428524826
    Two-Electron Energy =                 138.9249075555312061
    Total Energy =                       -188.8400803133842487

  Dipole Moment: [D]
     X:    -0.4882      Y:    -2.0258      Z:     0.0013     Total:     2.0838

    SAPT Results
  --------------------------------------------------------------------------------------------------------
    Electrostatics                -51.62800283 [mEh]     -32.39706089 [kcal/mol]    -135.54930275 [kJ/mol]
      Elst10,r                    -51.62800283 [mEh]     -32.39706089 [kcal/mol]    -135.54930275 [kJ/mol]

    Exchange                       53.14728237 [mEh]      33.35042319 [kcal/mol]     139.53817063 [kJ/mol]
      Exch10                       53.14728237 [mEh]      33.35042319 [kcal/mol]     139.53817063 [kJ/mol]
      Exch10(S^2)                  52.24145600 [mEh]      32.78200857 [kcal/mol]     137.15992384 [kJ/mol]

    Induction                     -26.18615165 [mEh]     -16.43205824 [kcal/mol]     -68.75173168 [kJ/mol]
      Ind20,r                     -31.19790617 [mEh]     -19.57698169 [kcal/mol]     -81.91009138 [kJ/mol]
      Exch-Ind20,r                 16.26903784 [mEh]      10.20897538 [kcal/mol]      42.71435297 [kJ/mol]
      delta HF,r (2)              -11.25728331 [mEh]      -7.06405193 [kcal/mol]     -29.55599327 [kJ/mol]

    Dispersion                    -12.77980058 [mEh]      -8.01944594 [kcal/mol]     -33.55336179 [kJ/mol]
      Disp20                      -16.01922737 [mEh]     -10.05221694 [kcal/mol]     -42.05847568 [kJ/mol]
      Exch-Disp20                   3.23942680 [mEh]       2.03277101 [kcal/mol]       8.50511389 [kJ/mol]
      Disp20 (SS)                  -8.00961369 [mEh]      -5.02610847 [kcal/mol]     -21.02923784 [kJ/mol]
      Disp20 (OS)                  -8.00961369 [mEh]      -5.02610847 [kcal/mol]     -21.02923784 [kJ/mol]
      Exch-Disp20 (SS)              2.03968595 [mEh]       1.27992225 [kcal/mol]       5.35519471 [kJ/mol]
      Exch-Disp20 (OS)              1.19974085 [mEh]       0.75284875 [kcal/mol]       3.14991917 [kJ/mol]

  Total HF                        -24.66687211 [mEh]     -15.47869594 [kcal/mol]     -64.76286380 [kJ/mol]
  Total SAPT0                     -37.44667269 [mEh]     -23.49814187 [kcal/mol]     -98.31622559 [kJ/mol]

  Special recipe for scaled SAPT0 (see Manual):
    Electrostatics sSAPT0         -51.62800283 [mEh]     -32.39706089 [kcal/mol]    -135.54930275 [kJ/mol]
    Exchange sSAPT0                53.14728237 [mEh]      33.35042319 [kcal/mol]     139.53817063 [kJ/mol]
    Induction sSAPT0              -25.32511551 [mEh]     -15.89174991 [kcal/mol]     -66.49108162 [kJ/mol]
    Dispersion sSAPT0             -12.60835445 [mEh]      -7.91186187 [kcal/mol]     -33.10323005 [kJ/mol]
  Total sSAPT0                    -36.41419043 [mEh]     -22.85024947 [kcal/mol]     -95.60544380 [kJ/mol]
  --------------------------------------------------------------------------------------------------------

*** Psi4 exiting successfully. Buy a developer a beer!
