                               Psi4 1.3.2 release

  ==> Input File <==

--------------------------------------------------------------------------
# Any line starting with the # character is a comment line
#! Sample  computation

memory 22 gb

molecule Dimer {

0 1
 C    3.36277300   -0.66409800    0.00040900
 C    1.88845000   -0.36100900    0.00027200
 O    1.04664100   -1.25766300   -0.00014500
 O    1.59194000    0.92539900    0.00049800
 H    0.59677600    1.03260600    0.00037400
 C    4.28215100    0.54638900   -0.00053700
 H    5.32167000    0.22293600   -0.00038700
 H    4.11532500    1.16468600   -0.87964700
 H    4.11545600    1.16596500    0.87769200
 H    3.53948000   -1.29860600    0.87028100
 H    3.53942000   -1.29999900   -0.86844400

 --
0 1
 C    -3.36277500    0.66409700   -0.00024700
 C    -1.88845100    0.36101100   -0.00034800
 O    -1.04664100    1.25766500    0.00015300
 O    -1.59193900   -0.92539700   -0.00048600
 H    -0.59677600   -1.03260400   -0.00034500
 C    -4.28215000   -0.54639200    0.00039700
 H    -4.11525300   -1.16496500    0.87929900
 H    -5.32167000   -0.22294300    0.00043000
 H    -4.11552300   -1.16569300   -0.87803900
 H    -3.53935400    1.29971200    0.86883300
 H    -3.53955400    1.29889000   -0.86989200

units angstrom

no_reorient
symmetry c1
}

set globals{
  basis jun-cc-pVTZ
  scf_type DF
  freeze_core True
}

energy('sapt0')

--------------------------------------------------------------------------

  //              Dimer HF             //
    Molecular point group: c1
  Charge       = 0
  Multiplicity = 1
  Basis Set: JUN-CC-PVTZ
    Blend: JUN-CC-PVTZ
  Basis Set: (JUN-CC-PVTZ AUX)
    Blend: JUN-CC-PVTZ-JKFIT
  @DF-RHF Final Energy:  -533.92034943590875
    Total Energy =                       -533.9203494359087472
  //            Monomer A HF           //
    Molecular point group: c1
  Multiplicity = 1
  Basis Set: JUN-CC-PVTZ
    Blend: JUN-CC-PVTZ
  Basis Set: (JUN-CC-PVTZ AUX)
    Blend: JUN-CC-PVTZ-JKFIT
  @DF-RHF Final Energy:  -266.94649420632209
    Total Energy =                       -266.9464942063220860
  //            Monomer B HF           //
    Molecular point group: c1

    Geometry (in Angstrom), charge = 0, multiplicity = 1:

       Center              X                  Y                   Z               Mass
    ------------   -----------------  -----------------  -----------------  -----------------
      Gh(C)           3.362773074480    -0.664098167905     0.000410160834    12.000000000000
      Gh(C)           1.888450074480    -0.361009167905     0.000273160834    12.000000000000
      Gh(O)           1.046641074480    -1.257663167905    -0.000143839166    15.994914619570
      Gh(O)           1.591940074480     0.925398832095     0.000499160834    15.994914619570
      Gh(H)           0.596776074480     1.032605832095     0.000375160834     1.007825032230
      Gh(C)           4.282151074480     0.546388832095    -0.000535839166    12.000000000000
      Gh(H)           5.321670074480     0.222935832095    -0.000385839166     1.007825032230
      Gh(H)           4.115325074480     1.164685832095    -0.879645839166     1.007825032230
      Gh(H)           4.115456074480     1.165964832095     0.877693160834     1.007825032230
      Gh(H)           3.539480074480    -1.298606167905     0.870282160834     1.007825032230
      Gh(H)           3.539420074480    -1.299999167905    -0.868442839166     1.007825032230
         C           -3.362774925520     0.664096832095    -0.000245839166    12.000000000000
         C           -1.888450925520     0.361010832095    -0.000346839166    12.000000000000
         O           -1.046640925520     1.257664832095     0.000154160834    15.994914619570
         O           -1.591938925520    -0.925397167905    -0.000484839166    15.994914619570
         H           -0.596775925520    -1.032604167905    -0.000343839166     1.007825032230
         C           -4.282149925520    -0.546392167905     0.000398160834    12.000000000000
         H           -4.115252925520    -1.164965167905     0.879300160834     1.007825032230
         H           -5.321669925520    -0.222943167905     0.000431160834     1.007825032230
         H           -4.115522925520    -1.165693167905    -0.878037839166     1.007825032230
         H           -3.539353925520     1.299711832095     0.868834160834     1.007825032230
         H           -3.539553925520     1.298889832095    -0.869890839166     1.007825032230

  Charge       = 0
  Multiplicity = 1
  Basis Set: JUN-CC-PVTZ
    Blend: JUN-CC-PVTZ
  Basis Set: (JUN-CC-PVTZ AUX)
    Blend: JUN-CC-PVTZ-JKFIT

    Orbital Energies [Eh]
    ---------------------

    Doubly Occupied:

       1A    -20.626665     2A    -20.538703     3A    -11.386040
       4A    -11.246972     5A    -11.226340     6A     -1.470735
       7A     -1.348627     8A     -1.068818     9A     -0.910094
      10A     -0.825168    11A     -0.704517    12A     -0.670983
      13A     -0.664380    14A     -0.597595    15A     -0.585696
      16A     -0.552609    17A     -0.525176    18A     -0.519316
      19A     -0.464839    20A     -0.443130

  @DF-RHF Final Energy:  -266.94649422671313

   => Energetics <=

    Nuclear Repulsion Energy =            179.0666934161775146
    One-Electron Energy =                -719.2735693374386301
    Two-Electron Energy =                 273.2603816945480162
    Total Energy =                       -266.9464942267131278

  Dipole Moment: [D]
     X:    -1.4775      Y:    -1.8836      Z:    -0.0008     Total:     2.3939

    SAPT Results
  --------------------------------------------------------------------------------------------------------
    Electrostatics                -57.87678464 [mEh]     -36.31823067 [kcal/mol]    -151.95547712 [kJ/mol]
      Elst10,r                    -57.87678464 [mEh]     -36.31823067 [kcal/mol]    -151.95547712 [kJ/mol]

    Exchange                       59.90559779 [mEh]      37.59133014 [kcal/mol]     157.28212532 [kJ/mol]
      Exch10                       59.90559779 [mEh]      37.59133014 [kcal/mol]     157.28212532 [kJ/mol]
      Exch10(S^2)                  58.78058324 [mEh]      36.88537286 [kcal/mol]     154.32840004 [kJ/mol]

    Induction                     -29.38981603 [mEh]     -18.44238799 [kcal/mol]     -77.16295135 [kJ/mol]
      Ind20,r                     -35.08107722 [mEh]     -22.01370831 [kcal/mol]     -92.10535556 [kJ/mol]
      Exch-Ind20,r                 18.46499477 [mEh]      11.58695915 [kcal/mol]      48.47983709 [kJ/mol]
      delta HF,r (2)              -12.77373357 [mEh]      -8.01563883 [kcal/mol]     -33.53743287 [kJ/mol]

    Dispersion                    -14.28976991 [mEh]      -8.96696600 [kcal/mol]     -37.51778574 [kJ/mol]
      Disp20                      -18.03530514 [mEh]     -11.31732484 [kcal/mol]     -47.35168712 [kJ/mol]
      Exch-Disp20                   3.74553523 [mEh]       2.35035884 [kcal/mol]       9.83390139 [kJ/mol]
      Disp20 (SS)                  -9.01765257 [mEh]      -5.65866242 [kcal/mol]     -23.67584356 [kJ/mol]
      Disp20 (OS)                  -9.01765257 [mEh]      -5.65866242 [kcal/mol]     -23.67584356 [kJ/mol]
      Exch-Disp20 (SS)              2.35159434 [mEh]       1.47564772 [kcal/mol]       6.17411008 [kJ/mol]
      Exch-Disp20 (OS)              1.39394089 [mEh]       0.87471112 [kcal/mol]       3.65979131 [kJ/mol]

  Total HF                        -27.36100287 [mEh]     -17.16928852 [kcal/mol]     -71.83630315 [kJ/mol]
  Total SAPT0                     -41.65077279 [mEh]     -26.13625451 [kcal/mol]    -109.35408888 [kJ/mol]

  Special recipe for scaled SAPT0 (see Manual):
    Electrostatics sSAPT0         -57.87678464 [mEh]     -36.31823067 [kcal/mol]    -151.95547712 [kJ/mol]
    Exchange sSAPT0                59.90559779 [mEh]      37.59133014 [kcal/mol]     157.28212532 [kJ/mol]
    Induction sSAPT0              -28.30917802 [mEh]     -17.76427741 [kcal/mol]     -74.32573666 [kJ/mol]
    Dispersion sSAPT0             -14.07056770 [mEh]      -8.82941453 [kcal/mol]     -36.94227041 [kJ/mol]
  Total sSAPT0                    -40.35093257 [mEh]     -25.32059246 [kcal/mol]    -105.94135887 [kJ/mol]
  --------------------------------------------------------------------------------------------------------

*** Psi4 exiting successfully. Buy a developer a beer!
