                               Psi4 1.3.2 release

  ==> Input File <==

--------------------------------------------------------------------------
# Any line starting with the # character is a comment line
#! Sample  computation

memory 22 gb

molecule Dimer {
0 1
 C -1.876923    0.681003   -0.618164
 C -1.552158   -0.613675    0.100798
 O -1.196924   -0.660814    1.270630
 N -1.696551   -1.741258   -0.656814
 H -1.363523   -2.609664   -0.273352
 H -1.847914   -1.681240   -1.647213
 C -1.900161    1.872235    0.323640
 H -0.939448    1.986491    0.820536
 H -2.120665    2.786635   -0.225043
 H -2.655702    1.737324    1.094995
 H -1.124960    0.820852   -1.400016
 H -2.835356    0.563267   -1.128837

 --
0 1
 C   1.947223   -1.856930    0.252908
 H   1.101620   -1.906900    0.940124
 H   2.861880   -1.947486    0.840609
 H   1.899084   -2.713822   -0.420070
 C   1.929505   -0.539491   -0.512136
 H   2.772470   -0.498308   -1.208325
 H   1.023811   -0.482441   -1.123792
 C   1.981731    0.669472    0.413912
 H   2.894329    0.617567    1.014213
 H   1.143748    0.612927    1.113106
 C   1.944371    1.988790   -0.347391
 H   1.030813    2.070476   -0.939205
 H   1.980056    2.844614    0.326707
 H   2.789487    2.066599   -1.033183

units angstrom

no_reorient
symmetry c1
}

set globals{
  basis jun-cc-pvtz
}

energy('sapt0')

--------------------------------------------------------------------------

  //              Dimer HF             //
    Molecular point group: c1
  Charge       = 0
  Multiplicity = 1
  Basis Set: JUN-CC-PVTZ
    Blend: JUN-CC-PVTZ
  Basis Set: (JUN-CC-PVTZ AUX)
    Blend: JUN-CC-PVTZ-JKFIT
  @DF-RHF Final Energy:  -404.46245387785314
    Total Energy =                       -404.4624538778531360
  //            Monomer A HF           //
    Molecular point group: c1
  Multiplicity = 1
  Basis Set: JUN-CC-PVTZ
    Blend: JUN-CC-PVTZ
  Basis Set: (JUN-CC-PVTZ AUX)
    Blend: JUN-CC-PVTZ-JKFIT
  @DF-RHF Final Energy:  -247.11028924556905
    Total Energy =                       -247.1102892455690494
  //            Monomer B HF           //
    Molecular point group: c1

    Geometry (in Angstrom), charge = 0, multiplicity = 1:

       Center              X                  Y                   Z               Mass
    ------------   -----------------  -----------------  -----------------  -----------------
      Gh(C)          -1.826918665918     0.713302762275    -0.642680242722    12.000000000000
      Gh(C)          -1.502153665918    -0.581375237725     0.076281757278    12.000000000000
      Gh(O)          -1.146919665918    -0.628514237725     1.246113757278    15.994914619570
      Gh(N)          -1.646546665918    -1.708958237725    -0.681330242722    14.003074004430
      Gh(H)          -1.313518665918    -2.577364237725    -0.297868242722     1.007825032230
      Gh(H)          -1.797909665918    -1.648940237725    -1.671729242722     1.007825032230
      Gh(C)          -1.850156665918     1.904534762275     0.299123757278    12.000000000000
      Gh(H)          -0.889443665918     2.018790762275     0.796019757278     1.007825032230
      Gh(H)          -2.070660665918     2.818934762275    -0.249559242722     1.007825032230
      Gh(H)          -2.605697665918     1.769623762275     1.070478757278     1.007825032230
      Gh(H)          -1.074955665918     0.853151762275    -1.424532242722     1.007825032230
      Gh(H)          -2.785351665918     0.595566762275    -1.153353242722     1.007825032230
         C            1.997227334082    -1.824630237725     0.228391757278    12.000000000000
         H            1.151624334082    -1.874600237725     0.915607757278     1.007825032230
         H            2.911884334082    -1.915186237725     0.816092757278     1.007825032230
         H            1.949088334082    -2.681522237725    -0.444586242722     1.007825032230
         C            1.979509334082    -0.507191237725    -0.536652242722    12.000000000000
         H            2.822474334082    -0.466008237725    -1.232841242722     1.007825032230
         H            1.073815334082    -0.450141237725    -1.148308242722     1.007825032230
         C            2.031735334082     0.701771762275     0.389395757278    12.000000000000
         H            2.944333334082     0.649866762275     0.989696757278     1.007825032230
         H            1.193752334082     0.645226762275     1.088589757278     1.007825032230
         C            1.994375334082     2.021089762275    -0.371907242722    12.000000000000
         H            1.080817334082     2.102775762275    -0.963721242722     1.007825032230
         H            2.030060334082     2.876913762275     0.302190757278     1.007825032230
         H            2.839491334082     2.098898762275    -1.057699242722     1.007825032230

  Charge       = 0
  Multiplicity = 1
  Basis Set: JUN-CC-PVTZ
    Blend: JUN-CC-PVTZ
  Basis Set: (JUN-CC-PVTZ AUX)
    Blend: JUN-CC-PVTZ-JKFIT

    Orbital Energies [Eh]
    ---------------------

    Doubly Occupied:

       1A    -11.213422     2A    -11.212779     3A    -11.207711
       4A    -11.207643     5A     -1.071433     6A     -0.980154
       7A     -0.859954     8A     -0.787339     9A     -0.639207
      10A     -0.584137    11A     -0.575435    12A     -0.566964
      13A     -0.513974    14A     -0.494130    15A     -0.469359
      16A     -0.461728    17A     -0.455582

  @DF-RHF Final Energy:  -157.35586263827935

   => Energetics <=

    Nuclear Repulsion Energy =            131.0976774964483980
    One-Electron Energy =                -470.3051773806180336
    Two-Electron Energy =                 181.8516372458902879
    Total Energy =                       -157.3558626382793477

  Dipole Moment: [D]
     X:     0.0040      Y:     0.0024      Z:    -0.0006     Total:     0.0047

    SAPT Results
  --------------------------------------------------------------------------------------------------------
    Electrostatics                 -3.62805070 [mEh]      -2.27663619 [kcal/mol]      -9.52544581 [kJ/mol]
      Elst10,r                     -3.62805070 [mEh]      -2.27663619 [kcal/mol]      -9.52544581 [kJ/mol]

    Exchange                        8.84735846 [mEh]       5.55180125 [kcal/mol]      23.22873643 [kJ/mol]
      Exch10                        8.84735846 [mEh]       5.55180125 [kcal/mol]      23.22873643 [kJ/mol]
      Exch10(S^2)                   8.83626569 [mEh]       5.54484043 [kcal/mol]      23.19961237 [kJ/mol]

    Induction                      -1.52130176 [mEh]      -0.95463127 [kcal/mol]      -3.99417722 [kJ/mol]
      Ind20,r                      -2.58341225 [mEh]      -1.62111566 [kcal/mol]      -6.78274794 [kJ/mol]
      Exch-Ind20,r                  1.67664247 [mEh]       1.05210903 [kcal/mol]       4.40202419 [kJ/mol]
      delta HF,r (2)               -0.61453197 [mEh]      -0.38562464 [kcal/mol]      -1.61345348 [kJ/mol]

    Dispersion                    -10.15565691 [mEh]      -6.37277093 [kcal/mol]     -26.66367356 [kJ/mol]
      Disp20                      -11.18079523 [mEh]      -7.01605493 [kcal/mol]     -29.35517383 [kJ/mol]
      Exch-Disp20                   1.02513832 [mEh]       0.64328400 [kcal/mol]       2.69150028 [kJ/mol]
      Disp20 (SS)                  -5.59039761 [mEh]      -3.50802747 [kcal/mol]     -14.67758692 [kJ/mol]
      Disp20 (OS)                  -5.59039761 [mEh]      -3.50802747 [kcal/mol]     -14.67758692 [kJ/mol]
      Exch-Disp20 (SS)              0.66282750 [mEh]       0.41593053 [kcal/mol]       1.74025336 [kJ/mol]
      Exch-Disp20 (OS)              0.36231082 [mEh]       0.22735347 [kcal/mol]       0.95124692 [kJ/mol]

  Total HF                          3.69800600 [mEh]       2.32053380 [kcal/mol]       9.70911340 [kJ/mol]
  Total SAPT0                      -6.45765092 [mEh]      -4.05223713 [kcal/mol]     -16.95456015 [kJ/mol]

  Special recipe for scaled SAPT0 (see Manual):
    Electrostatics sSAPT0          -3.62805070 [mEh]      -2.27663619 [kcal/mol]      -9.52544581 [kJ/mol]
    Exchange sSAPT0                 8.84735846 [mEh]       5.55180125 [kcal/mol]      23.22873643 [kJ/mol]
    Induction sSAPT0               -1.51497942 [mEh]      -0.95066394 [kcal/mol]      -3.97757791 [kJ/mol]
    Dispersion sSAPT0             -10.15179129 [mEh]      -6.37034521 [kcal/mol]     -26.65352435 [kJ/mol]
  Total sSAPT0                     -6.44746295 [mEh]      -4.04584408 [kcal/mol]     -16.92781164 [kJ/mol]
  --------------------------------------------------------------------------------------------------------

*** Psi4 exiting successfully. Buy a developer a beer!
