                               Psi4 1.3.2 release

  ==> Input File <==

--------------------------------------------------------------------------
# Any line starting with the # character is a comment line
#! Sample  computation

memory 22 gb

molecule Dimer {
0 1
 C -2.341147   -0.811983    0.002646
 O -1.383859   -1.155307   -0.670079
 N -2.570650    0.455727    0.427301
 H -3.375029    0.673134    0.985901
 H -1.915288    1.183274    0.193601
 H -3.118967   -1.516321    0.332296

 --
0 1
 C    0.565478    1.965478   -0.344701
 H   -0.096162    1.584463   -1.125265
 H    1.355508    2.532988   -0.838211
 H    0.006694    2.664656    0.281349
 C    1.147725    0.813373    0.464930
 H    1.814485    1.204043    1.238913
 H    0.346458    0.277578    0.980229
 C    1.906350   -0.176213   -0.409205
 H    2.728157    0.343364   -0.910339
 H    1.231738   -0.539964   -1.186948
 C    2.446072   -1.354762    0.390223
 H    1.626684   -1.903664    0.855759
 H    2.997005   -2.050263   -0.242385
 H    3.117271   -1.016284    1.181263

units angstrom

no_reorient
symmetry c1
}

set globals{
  basis jun-cc-pvtz
}

energy('sapt0')

--------------------------------------------------------------------------

  //              Dimer HF             //
    Molecular point group: c1
  Charge       = 0
  Multiplicity = 1
  Basis Set: JUN-CC-PVTZ
    Blend: JUN-CC-PVTZ
  Basis Set: (JUN-CC-PVTZ AUX)
    Blend: JUN-CC-PVTZ-JKFIT
  @DF-RHF Final Energy:  -326.35823223055013
    Total Energy =                       -326.3582322305501293
  //            Monomer A HF           //
    Molecular point group: c1
  Multiplicity = 1
  Basis Set: JUN-CC-PVTZ
    Blend: JUN-CC-PVTZ
  Basis Set: (JUN-CC-PVTZ AUX)
    Blend: JUN-CC-PVTZ-JKFIT
  @DF-RHF Final Energy:  -169.00389299739777
    Total Energy =                       -169.0038929973977702
  //            Monomer B HF           //
    Molecular point group: c1

    Geometry (in Angstrom), charge = 0, multiplicity = 1:

       Center              X                  Y                   Z               Mass
    ------------   -----------------  -----------------  -----------------  -----------------
      Gh(C)          -2.276482942487    -0.778977639296     0.019404398435    12.000000000000
      Gh(O)          -1.319194942487    -1.122301639296    -0.653320601565    15.994914619570
      Gh(N)          -2.505985942487     0.488732360704     0.444059398435    14.003074004430
      Gh(H)          -3.310364942487     0.706139360704     1.002659398435     1.007825032230
      Gh(H)          -1.850623942487     1.216279360704     0.210359398435     1.007825032230
      Gh(H)          -3.054302942487    -1.483315639296     0.349054398435     1.007825032230
         C            0.630142057513     1.998483360704    -0.327942601565    12.000000000000
         H           -0.031497942487     1.617468360704    -1.108506601565     1.007825032230
         H            1.420172057513     2.565993360704    -0.821452601565     1.007825032230
         H            0.071358057513     2.697661360704     0.298107398435     1.007825032230
         C            1.212389057513     0.846378360704     0.481688398435    12.000000000000
         H            1.879149057513     1.237048360704     1.255671398435     1.007825032230
         H            0.411122057513     0.310583360704     0.996987398435     1.007825032230
         C            1.971014057513    -0.143207639296    -0.392446601565    12.000000000000
         H            2.792821057513     0.376369360704    -0.893580601565     1.007825032230
         H            1.296402057513    -0.506958639296    -1.170189601565     1.007825032230
         C            2.510736057513    -1.321756639296     0.406981398435    12.000000000000
         H            1.691348057513    -1.870658639296     0.872517398435     1.007825032230
         H            3.061669057513    -2.017257639296    -0.225626601565     1.007825032230
         H            3.181935057513    -0.983278639296     1.198021398435     1.007825032230

  Charge       = 0
  Multiplicity = 1
  Basis Set: JUN-CC-PVTZ
    Blend: JUN-CC-PVTZ
  Basis Set: (JUN-CC-PVTZ AUX)
    Blend: JUN-CC-PVTZ-JKFIT

    Orbital Energies [Eh]
    ---------------------

    Doubly Occupied:

       1A    -11.213143     2A    -11.212510     3A    -11.207786
       4A    -11.207368     5A     -1.072020     6A     -0.980008
       7A     -0.859716     8A     -0.787246     9A     -0.640354
      10A     -0.583882    11A     -0.575502    12A     -0.566938
      13A     -0.513619    14A     -0.494215    15A     -0.468961
      16A     -0.462819    17A     -0.455117

  @DF-RHF Final Energy:  -157.35570470953454

   => Energetics <=

    Nuclear Repulsion Energy =            131.1907359535570379
    One-Electron Energy =                -470.4904745908035011
    Two-Electron Energy =                 181.9440339277119563
    Total Energy =                       -157.3557047095345354

  Dipole Moment: [D]
     X:     0.0068      Y:    -0.0025      Z:    -0.0024     Total:     0.0077

    SAPT Results
  --------------------------------------------------------------------------------------------------------
    Electrostatics                 -3.14122633 [mEh]      -1.97114928 [kcal/mol]      -8.24728858 [kJ/mol]
      Elst10,r                     -3.14122633 [mEh]      -1.97114928 [kcal/mol]      -8.24728858 [kJ/mol]

    Exchange                        6.28631951 [mEh]       3.94472505 [kcal/mol]      16.50472959 [kJ/mol]
      Exch10                        6.28631951 [mEh]       3.94472505 [kcal/mol]      16.50472959 [kJ/mol]
      Exch10(S^2)                   6.27167368 [mEh]       3.93553465 [kcal/mol]      16.46627698 [kJ/mol]

    Induction                      -1.77961680 [mEh]      -1.11672640 [kcal/mol]      -4.67238326 [kJ/mol]
      Ind20,r                      -2.57904227 [mEh]      -1.61837346 [kcal/mol]      -6.77127455 [kJ/mol]
      Exch-Ind20,r                  1.31434461 [mEh]       0.82476369 [kcal/mol]       3.45081129 [kJ/mol]
      delta HF,r (2)               -0.51491913 [mEh]      -0.32311663 [kcal/mol]      -1.35192000 [kJ/mol]

    Dispersion                     -6.37448580 [mEh]      -4.00005023 [kcal/mol]     -16.73621017 [kJ/mol]
      Disp20                       -7.05564216 [mEh]      -4.42748230 [kcal/mol]     -18.52458593 [kJ/mol]
      Exch-Disp20                   0.68115635 [mEh]       0.42743206 [kcal/mol]       1.78837576 [kJ/mol]
      Disp20 (SS)                  -3.52782108 [mEh]      -2.21374115 [kcal/mol]      -9.26229296 [kJ/mol]
      Disp20 (OS)                  -3.52782108 [mEh]      -2.21374115 [kcal/mol]      -9.26229296 [kJ/mol]
      Exch-Disp20 (SS)              0.43650161 [mEh]       0.27390889 [kcal/mol]       1.14603481 [kJ/mol]
      Exch-Disp20 (OS)              0.24465474 [mEh]       0.15352317 [kcal/mol]       0.64234094 [kJ/mol]

  Total HF                          1.36547638 [mEh]       0.85684937 [kcal/mol]       3.58505775 [kJ/mol]
  Total SAPT0                      -5.00900942 [mEh]      -3.14320087 [kcal/mol]     -13.15115242 [kJ/mol]

  Special recipe for scaled SAPT0 (see Manual):
    Electrostatics sSAPT0          -3.14122633 [mEh]      -1.97114928 [kcal/mol]      -8.24728858 [kJ/mol]
    Exchange sSAPT0                 6.28631951 [mEh]       3.94472505 [kcal/mol]      16.50472959 [kJ/mol]
    Induction sSAPT0               -1.77038737 [mEh]      -1.11093485 [kcal/mol]      -4.64815141 [kJ/mol]
    Dispersion sSAPT0              -6.36970267 [mEh]      -3.99704877 [kcal/mol]     -16.72365206 [kJ/mol]
  Total sSAPT0                     -4.99499686 [mEh]      -3.13440785 [kcal/mol]     -13.11436246 [kJ/mol]
  --------------------------------------------------------------------------------------------------------

*** Psi4 exiting successfully. Buy a developer a beer!
