                               Psi4 1.3.2 release

  ==> Input File <==

--------------------------------------------------------------------------
# Any line starting with the # character is a comment line
#! Sample  computation

memory 22 gb

molecule Dimer {
0 1
 C -1.594798   -1.610247   -0.329733
 C -1.800645   -0.213009    0.203176
 O -1.535480    0.098553    1.356254
 N -2.344990    0.673712   -0.678549
 H -2.478542   -2.204370   -0.097722
 H -1.436525   -1.630319   -1.406574
 H -0.742460   -2.052773    0.177227
 H -2.468636    1.625600   -0.378636
 H -2.463823    0.448091   -1.648114

 --
0 1
 C   1.032852    2.089322    0.024720
 H   1.856797    2.566472    0.557262
 H   0.224531    1.923903    0.737976
 H   0.683749    2.785066   -0.739039
 C   1.483815    0.767476   -0.583987
 H   0.660767    0.322398   -1.151952
 H   2.290921    0.942093   -1.301719
 C   1.955011   -0.227555    0.469384
 H   1.139561   -0.408458    1.174235
 H   2.769003    0.222551    1.044343
 C   2.427081   -1.540994   -0.141999
 H   3.269199   -1.375313   -0.815631
 H   2.744119   -2.250784    0.621876
 H   1.630212   -2.008524   -0.723087

units angstrom

no_reorient
symmetry c1
}

set globals{
  basis jun-cc-pvtz
}

energy('sapt0')

--------------------------------------------------------------------------

  //              Dimer HF             //
    Molecular point group: c1
  Charge       = 0
  Multiplicity = 1
  Basis Set: JUN-CC-PVTZ
    Blend: JUN-CC-PVTZ
  Basis Set: (JUN-CC-PVTZ AUX)
    Blend: JUN-CC-PVTZ-JKFIT
  @DF-RHF Final Energy:  -365.41520726712565
    Total Energy =                       -365.4152072671256519
  //            Monomer A HF           //
    Molecular point group: c1
  Multiplicity = 1
  Basis Set: JUN-CC-PVTZ
    Blend: JUN-CC-PVTZ
  Basis Set: (JUN-CC-PVTZ AUX)
    Blend: JUN-CC-PVTZ-JKFIT
  @DF-RHF Final Energy:  -208.06230309672154
    Total Energy =                       -208.0623030967215357
  //            Monomer B HF           //
    Molecular point group: c1

    Geometry (in Angstrom), charge = 0, multiplicity = 1:

       Center              X                  Y                   Z               Mass
    ------------   -----------------  -----------------  -----------------  -----------------
      Gh(C)          -1.529749424699    -1.619531617483    -0.363116038207    12.000000000000
      Gh(C)          -1.735596424699    -0.222293617483     0.169792961793    12.000000000000
      Gh(O)          -1.470431424699     0.089268382517     1.322870961793    15.994914619570
      Gh(N)          -2.279941424699     0.664427382517    -0.711932038207    14.003074004430
      Gh(H)          -2.413493424699    -2.213654617483    -0.131105038207     1.007825032230
      Gh(H)          -1.371476424699    -1.639603617483    -1.439957038207     1.007825032230
      Gh(H)          -0.677411424699    -2.062057617483     0.143843961793     1.007825032230
      Gh(H)          -2.403587424699     1.616315382517    -0.412019038207     1.007825032230
      Gh(H)          -2.398774424699     0.438806382517    -1.681497038207     1.007825032230
         C            1.097900575301     2.080037382517    -0.008663038207    12.000000000000
         H            1.921845575301     2.557187382517     0.523878961793     1.007825032230
         H            0.289579575301     1.914618382517     0.704592961793     1.007825032230
         H            0.748797575301     2.775781382517    -0.772422038207     1.007825032230
         C            1.548863575301     0.758191382517    -0.617370038207    12.000000000000
         H            0.725815575301     0.313113382517    -1.185335038207     1.007825032230
         H            2.355969575301     0.932808382517    -1.335102038207     1.007825032230
         C            2.020059575301    -0.236839617483     0.436000961793    12.000000000000
         H            1.204609575301    -0.417742617483     1.140851961793     1.007825032230
         H            2.834051575301     0.213266382517     1.010959961793     1.007825032230
         C            2.492129575301    -1.550278617483    -0.175382038207    12.000000000000
         H            3.334247575301    -1.384597617483    -0.849014038207     1.007825032230
         H            2.809167575301    -2.260068617483     0.588492961793     1.007825032230
         H            1.695260575301    -2.017808617483    -0.756470038207     1.007825032230

  Charge       = 0
  Multiplicity = 1
  Basis Set: JUN-CC-PVTZ
    Blend: JUN-CC-PVTZ
  Basis Set: (JUN-CC-PVTZ AUX)
    Blend: JUN-CC-PVTZ-JKFIT

    Orbital Energies [Eh]
    ---------------------

    Doubly Occupied:

       1A    -11.213428     2A    -11.212796     3A    -11.207673
       4A    -11.207638     5A     -1.071418     6A     -0.980159
       7A     -0.860015     8A     -0.787408     9A     -0.639028
      10A     -0.584258    11A     -0.575532    12A     -0.566787
      13A     -0.514172    14A     -0.494036    15A     -0.469485
      16A     -0.461575    17A     -0.455624

  @DF-RHF Final Energy:  -157.35585969413430

   => Energetics <=

    Nuclear Repulsion Energy =            131.0973991601964883
    One-Electron Energy =                -470.3044539124531411
    Two-Electron Energy =                 181.8511950581223857
    Total Energy =                       -157.3558596941342955

  Dipole Moment: [D]
     X:     0.0033      Y:    -0.0006      Z:    -0.0006     Total:     0.0035

    SAPT Results
  --------------------------------------------------------------------------------------------------------
    Electrostatics                 -3.24651010 [mEh]      -2.03721584 [kcal/mol]      -8.52371109 [kJ/mol]
      Elst10,r                     -3.24651010 [mEh]      -2.03721584 [kcal/mol]      -8.52371109 [kJ/mol]

    Exchange                        7.59381644 [mEh]       4.76519176 [kcal/mol]      19.93756232 [kJ/mol]
      Exch10                        7.59381644 [mEh]       4.76519176 [kcal/mol]      19.93756232 [kJ/mol]
      Exch10(S^2)                   7.58315972 [mEh]       4.75850456 [kcal/mol]      19.90958309 [kJ/mol]

    Induction                      -1.39178261 [mEh]      -0.87335677 [kcal/mol]      -3.65412474 [kJ/mol]
      Ind20,r                      -2.37342401 [mEh]      -1.48934605 [kcal/mol]      -6.23142388 [kJ/mol]
      Exch-Ind20,r                  1.51564546 [mEh]       0.95108189 [kcal/mol]       3.97932662 [kJ/mol]
      delta HF,r (2)               -0.53400406 [mEh]      -0.33509261 [kcal/mol]      -1.40202747 [kJ/mol]

    Dispersion                     -8.53637553 [mEh]      -5.35665651 [kcal/mol]     -22.41225086 [kJ/mol]
      Disp20                       -9.41241408 [mEh]      -5.90637901 [kcal/mol]     -24.71228977 [kJ/mol]
      Exch-Disp20                   0.87603856 [mEh]       0.54972249 [kcal/mol]       2.30003891 [kJ/mol]
      Disp20 (SS)                  -4.70620704 [mEh]      -2.95318950 [kcal/mol]     -12.35614488 [kJ/mol]
      Disp20 (OS)                  -4.70620704 [mEh]      -2.95318950 [kcal/mol]     -12.35614488 [kJ/mol]
      Exch-Disp20 (SS)              0.56530216 [mEh]       0.35473246 [kcal/mol]       1.48420063 [kJ/mol]
      Exch-Disp20 (OS)              0.31073639 [mEh]       0.19499003 [kcal/mol]       0.81583828 [kJ/mol]

  Total HF                          2.95552373 [mEh]       1.85461914 [kcal/mol]       7.75972648 [kJ/mol]
  Total SAPT0                      -5.58085180 [mEh]      -3.50203737 [kcal/mol]     -14.65252437 [kJ/mol]

  Special recipe for scaled SAPT0 (see Manual):
    Electrostatics sSAPT0          -3.24651010 [mEh]      -2.03721584 [kcal/mol]      -8.52371109 [kJ/mol]
    Exchange sSAPT0                 7.59381644 [mEh]       4.76519176 [kcal/mol]      19.93756232 [kJ/mol]
    Induction sSAPT0               -1.38538375 [mEh]      -0.86934143 [kcal/mol]      -3.63732454 [kJ/mol]
    Dispersion sSAPT0              -8.53267700 [mEh]      -5.35433566 [kcal/mol]     -22.40254039 [kJ/mol]
  Total sSAPT0                     -5.57075441 [mEh]      -3.49570117 [kcal/mol]     -14.62601370 [kJ/mol]
  --------------------------------------------------------------------------------------------------------

*** Psi4 exiting successfully. Buy a developer a beer!
