                               Psi4 1.3.2 release

  ==> Input File <==

--------------------------------------------------------------------------
# Any line starting with the # character is a comment line
#! Sample  computation

memory 22 gb

molecule Dimer {
0 1
 C 1.204835    1.268779   -0.667945
 C 1.246612    0.052679    0.225140
 O 0.797182    0.058146    1.362527
 N 1.812984   -1.060126   -0.324735
 H 1.876852    1.195256   -1.520323
 H 0.184360    1.392938   -1.029936
 H 1.458134    2.143114   -0.074808
 H 1.771370   -1.918496    0.197577
 H 2.095756   -1.087254   -1.286130

 --
0 1
 C   -2.101739   -0.829575   -0.414623
 C   -2.472438    0.531399    0.163019
 H   -2.934130   -1.268369   -0.964403
 H   -1.815958   -1.521546    0.376369
 H   -1.258461   -0.754185   -1.101722
 H   -3.336617    0.452578    0.821686
 H   -2.724504    1.241255   -0.625128
 H   -1.648762    0.940730    0.746199

units angstrom

no_reorient
symmetry c1
}

set globals{
  basis jun-cc-pvtz
}

energy('sapt0')

--------------------------------------------------------------------------

  //              Dimer HF             //
    Molecular point group: c1
  Charge       = 0
  Multiplicity = 1
  Basis Set: JUN-CC-PVTZ
    Blend: JUN-CC-PVTZ
  Basis Set: (JUN-CC-PVTZ AUX)
    Blend: JUN-CC-PVTZ-JKFIT
  @DF-RHF Final Energy:  -287.32036130692109
    Total Energy =                       -287.3203613069210860
  //            Monomer A HF           //
    Molecular point group: c1
  Multiplicity = 1
  Basis Set: JUN-CC-PVTZ
    Blend: JUN-CC-PVTZ
  Basis Set: (JUN-CC-PVTZ AUX)
    Blend: JUN-CC-PVTZ-JKFIT
  @DF-RHF Final Energy:  -208.06227262818004
    Total Energy =                       -208.0622726281800396
  //            Monomer B HF           //
    Molecular point group: c1

    Geometry (in Angstrom), charge = 0, multiplicity = 1:

       Center              X                  Y                   Z               Mass
    ------------   -----------------  -----------------  -----------------  -----------------
      Gh(C)           1.134295567071     1.277907368191    -0.717536173890    12.000000000000
      Gh(C)           1.176072567071     0.061807368191     0.175548826110    12.000000000000
      Gh(O)           0.726642567071     0.067274368191     1.312935826110    15.994914619570
      Gh(N)           1.742444567071    -1.050997631809    -0.374326173890    14.003074004430
      Gh(H)           1.806312567071     1.204384368191    -1.569914173890     1.007825032230
      Gh(H)           0.113820567071     1.402066368191    -1.079527173890     1.007825032230
      Gh(H)           1.387594567071     2.152242368191    -0.124399173890     1.007825032230
      Gh(H)           1.700830567071    -1.909367631809     0.147985826110     1.007825032230
      Gh(H)           2.025216567071    -1.078125631809    -1.335721173890     1.007825032230
         C           -2.172278432929    -0.820446631809    -0.464214173890    12.000000000000
         C           -2.542977432929     0.540527368191     0.113427826110    12.000000000000
         H           -3.004669432929    -1.259240631809    -1.013994173890     1.007825032230
         H           -1.886497432929    -1.512417631809     0.326777826110     1.007825032230
         H           -1.329000432929    -0.745056631809    -1.151313173890     1.007825032230
         H           -3.407156432929     0.461706368191     0.772094826110     1.007825032230
         H           -2.795043432929     1.250383368191    -0.674719173890     1.007825032230
         H           -1.719301432929     0.949858368191     0.696607826110     1.007825032230

  Charge       = 0
  Multiplicity = 1
  Basis Set: JUN-CC-PVTZ
    Blend: JUN-CC-PVTZ
  Basis Set: (JUN-CC-PVTZ AUX)
    Blend: JUN-CC-PVTZ-JKFIT

    Orbital Energies [Eh]
    ---------------------

    Doubly Occupied:

       1A    -11.210550     2A    -11.209927     3A     -1.018491
       4A     -0.841307     5A     -0.598344     6A     -0.596108
       7A     -0.509333     8A     -0.487731     9A     -0.485494

  @DF-RHF Final Energy:   -79.26009014956327

   => Energetics <=

    Nuclear Repulsion Energy =             42.3389695315764598
    One-Electron Energy =                -189.2835547908489389
    Two-Electron Energy =                  67.6844951097092178
    Total Energy =                        -79.2600901495632684

  Dipole Moment: [D]
     X:    -0.0006      Y:    -0.0018      Z:     0.0037     Total:     0.0042

    SAPT Results
  --------------------------------------------------------------------------------------------------------
    Electrostatics                 -2.02599363 [mEh]      -1.27133020 [kcal/mol]      -5.31924554 [kJ/mol]
      Elst10,r                     -2.02599363 [mEh]      -1.27133020 [kcal/mol]      -5.31924554 [kJ/mol]

    Exchange                        4.94075307 [mEh]       3.10036936 [kcal/mol]      12.97194541 [kJ/mol]
      Exch10                        4.94075307 [mEh]       3.10036936 [kcal/mol]      12.97194541 [kJ/mol]
      Exch10(S^2)                   4.93154615 [mEh]       3.09459193 [kcal/mol]      12.94777263 [kJ/mol]

    Induction                      -0.91328862 [mEh]      -0.57309726 [kcal/mol]      -2.39783895 [kJ/mol]
      Ind20,r                      -1.50102495 [mEh]      -0.94190737 [kcal/mol]      -3.94094046 [kJ/mol]
      Exch-Ind20,r                  0.90223679 [mEh]       0.56616213 [kcal/mol]       2.36882237 [kJ/mol]
      delta HF,r (2)               -0.31450047 [mEh]      -0.19735202 [kcal/mol]      -0.82572087 [kJ/mol]

    Dispersion                     -5.57317395 [mEh]      -3.49721945 [kcal/mol]     -14.63236618 [kJ/mol]
      Disp20                       -6.11748483 [mEh]      -3.83877968 [kcal/mol]     -16.06145420 [kJ/mol]
      Exch-Disp20                   0.54431088 [mEh]       0.34156023 [kcal/mol]       1.42908802 [kJ/mol]
      Disp20 (SS)                  -3.05874241 [mEh]      -1.91938984 [kcal/mol]      -8.03072710 [kJ/mol]
      Disp20 (OS)                  -3.05874241 [mEh]      -1.91938984 [kcal/mol]      -8.03072710 [kJ/mol]
      Exch-Disp20 (SS)              0.35394478 [mEh]       0.22210370 [kcal/mol]       0.92928188 [kJ/mol]
      Exch-Disp20 (OS)              0.19036611 [mEh]       0.11945653 [kcal/mol]       0.49980614 [kJ/mol]

  Total HF                          2.00147082 [mEh]       1.25594190 [kcal/mol]       5.25486092 [kJ/mol]
  Total SAPT0                      -3.57170312 [mEh]      -2.24127755 [kcal/mol]      -9.37750526 [kJ/mol]

  Special recipe for scaled SAPT0 (see Manual):
    Electrostatics sSAPT0          -2.02599363 [mEh]      -1.27133020 [kcal/mol]      -5.31924554 [kJ/mol]
    Exchange sSAPT0                 4.94075307 [mEh]       3.10036936 [kcal/mol]      12.97194541 [kJ/mol]
    Induction sSAPT0               -0.90822591 [mEh]      -0.56992036 [kcal/mol]      -2.38454679 [kJ/mol]
    Dispersion sSAPT0              -5.57011966 [mEh]      -3.49530285 [kcal/mol]     -14.62434714 [kJ/mol]
  Total sSAPT0                     -3.56358611 [mEh]      -2.23618405 [kcal/mol]      -9.35619406 [kJ/mol]
  --------------------------------------------------------------------------------------------------------

*** Psi4 exiting successfully. Buy a developer a beer!
