                               Psi4 1.3.2 release

  ==> Input File <==

--------------------------------------------------------------------------
# Any line starting with the # character is a comment line
#! Sample  computation

memory 22 gb

molecule Dimer {
0 1
 C  1.363148    0.740785   -0.617534
 C  1.124868   -0.499724    0.220752
 O  0.680217   -0.465962    1.359423
 N  1.426923   -1.677770   -0.403048
 H  1.399228   -2.520689    0.144747
 H  1.911198   -1.689497   -1.281812
 C  0.869354    2.001474    0.070286
 H  1.366829    2.134829    1.028226
 H  1.063393    2.874716   -0.550604
 H -0.200012    1.940998    0.262469
 H  2.435499    0.805168   -0.820485
 H  0.872200    0.600251   -1.583102

 --
0 1
 C   -2.702325   -0.035396    0.538340
 C   -2.233871   -0.200050   -0.903161
 H   -3.388700    0.805470    0.634828
 H   -1.857745    0.131689    1.205206
 H   -3.223104   -0.928222    0.882807
 H   -1.736958    0.702011   -1.261473
 H   -3.069814   -0.400361   -1.573228
 H   -1.529252   -1.026809   -0.993726

units angstrom

no_reorient
symmetry c1
}

set globals{
  basis jun-cc-pvtz
}

energy('sapt0')

--------------------------------------------------------------------------

  //              Dimer HF             //
    Molecular point group: c1
  Charge       = 0
  Multiplicity = 1
  Basis Set: JUN-CC-PVTZ
    Blend: JUN-CC-PVTZ
  Basis Set: (JUN-CC-PVTZ AUX)
    Blend: JUN-CC-PVTZ-JKFIT
  @DF-RHF Final Energy:  -326.36814794280406
    Total Energy =                       -326.3681479428040575
  //            Monomer A HF           //
    Molecular point group: c1
  Multiplicity = 1
  Basis Set: JUN-CC-PVTZ
    Blend: JUN-CC-PVTZ
  Basis Set: (JUN-CC-PVTZ AUX)
    Blend: JUN-CC-PVTZ-JKFIT
  @DF-RHF Final Energy:  -247.11028270979943
    Total Energy =                       -247.1102827097994350
  //            Monomer B HF           //
    Molecular point group: c1

    Geometry (in Angstrom), charge = 0, multiplicity = 1:

       Center              X                  Y                   Z               Mass
    ------------   -----------------  -----------------  -----------------  -----------------
      Gh(C)           1.305809765060     0.773816144067    -0.655045521300    12.000000000000
      Gh(C)           1.067529765060    -0.466692855933     0.183240478700    12.000000000000
      Gh(O)           0.622878765060    -0.432930855933     1.321911478700    15.994914619570
      Gh(N)           1.369584765060    -1.644738855933    -0.440559521300    14.003074004430
      Gh(H)           1.341889765060    -2.487657855933     0.107235478700     1.007825032230
      Gh(H)           1.853859765060    -1.656465855933    -1.319323521300     1.007825032230
      Gh(C)           0.812015765060     2.034505144067     0.032774478700    12.000000000000
      Gh(H)           1.309490765060     2.167860144067     0.990714478700     1.007825032230
      Gh(H)           1.006054765060     2.907747144067    -0.588115521300     1.007825032230
      Gh(H)          -0.257350234940     1.974029144067     0.224957478700     1.007825032230
      Gh(H)           2.378160765060     0.838199144067    -0.857996521300     1.007825032230
      Gh(H)           0.814861765060     0.633282144067    -1.620613521300     1.007825032230
         C           -2.759663234940    -0.002364855933     0.500828478700    12.000000000000
         C           -2.291209234940    -0.167018855933    -0.940672521300    12.000000000000
         H           -3.446038234940     0.838501144067     0.597316478700     1.007825032230
         H           -1.915083234940     0.164720144067     1.167694478700     1.007825032230
         H           -3.280442234940    -0.895190855933     0.845295478700     1.007825032230
         H           -1.794296234940     0.735042144067    -1.298984521300     1.007825032230
         H           -3.127152234940    -0.367329855933    -1.610739521300     1.007825032230
         H           -1.586590234940    -0.993777855933    -1.031237521300     1.007825032230

  Charge       = 0
  Multiplicity = 1
  Basis Set: JUN-CC-PVTZ
    Blend: JUN-CC-PVTZ
  Basis Set: (JUN-CC-PVTZ AUX)
    Blend: JUN-CC-PVTZ-JKFIT

    Orbital Energies [Eh]
    ---------------------

    Doubly Occupied:

       1A    -11.210616     2A    -11.210003     3A     -1.018378
       4A     -0.841280     5A     -0.597842     6A     -0.596507
       7A     -0.509202     8A     -0.487370     9A     -0.485915

  @DF-RHF Final Energy:   -79.26011113604069

   => Energetics <=

    Nuclear Repulsion Energy =             42.3324914504535315
    One-Electron Energy =                -189.2709833331482514
    Two-Electron Energy =                  67.6783807466540424
    Total Energy =                        -79.2601111360406918

  Dipole Moment: [D]
     X:    -0.0014      Y:    -0.0026      Z:     0.0008     Total:     0.0031

    SAPT Results
  --------------------------------------------------------------------------------------------------------
    Electrostatics                 -2.48145681 [mEh]      -1.55713766 [kcal/mol]      -6.51506395 [kJ/mol]
      Elst10,r                     -2.48145681 [mEh]      -1.55713766 [kcal/mol]      -6.51506395 [kJ/mol]

    Exchange                        5.67359541 [mEh]       3.56023487 [kcal/mol]      14.89602269 [kJ/mol]
      Exch10                        5.67359541 [mEh]       3.56023487 [kcal/mol]      14.89602269 [kJ/mol]
      Exch10(S^2)                   5.66614774 [mEh]       3.55556139 [kcal/mol]      14.87646885 [kJ/mol]

    Induction                      -0.94623556 [mEh]      -0.59377178 [kcal/mol]      -2.48434113 [kJ/mol]
      Ind20,r                      -1.53594080 [mEh]      -0.96381740 [kcal/mol]      -4.03261201 [kJ/mol]
      Exch-Ind20,r                  0.96892525 [mEh]       0.60800977 [kcal/mol]       2.54391289 [kJ/mol]
      delta HF,r (2)               -0.37922002 [mEh]      -0.23796415 [kcal/mol]      -0.99564202 [kJ/mol]

    Dispersion                     -6.41140166 [mEh]      -4.02321528 [kcal/mol]     -16.83313275 [kJ/mol]
      Disp20                       -7.03103428 [mEh]      -4.41204062 [kcal/mol]     -18.45997795 [kJ/mol]
      Exch-Disp20                   0.61963261 [mEh]       0.38882533 [kcal/mol]       1.62684520 [kJ/mol]
      Disp20 (SS)                  -3.51551714 [mEh]      -2.20602031 [kcal/mol]      -9.22998898 [kJ/mol]
      Disp20 (OS)                  -3.51551714 [mEh]      -2.20602031 [kcal/mol]      -9.22998898 [kJ/mol]
      Exch-Disp20 (SS)              0.40296549 [mEh]       0.25286466 [kcal/mol]       1.05798574 [kJ/mol]
      Exch-Disp20 (OS)              0.21666713 [mEh]       0.13596067 [kcal/mol]       0.56885946 [kJ/mol]

  Total HF                          2.24590304 [mEh]       1.40932543 [kcal/mol]       5.89661761 [kJ/mol]
  Total SAPT0                      -4.16549863 [mEh]      -2.61388985 [kcal/mol]     -10.93651514 [kJ/mol]

  Special recipe for scaled SAPT0 (see Manual):
    Electrostatics sSAPT0          -2.48145681 [mEh]      -1.55713766 [kcal/mol]      -6.51506395 [kJ/mol]
    Exchange sSAPT0                 5.67359541 [mEh]       3.56023487 [kcal/mol]      14.89602269 [kJ/mol]
    Induction sSAPT0               -0.94240983 [mEh]      -0.59137110 [kcal/mol]      -2.47429668 [kJ/mol]
    Dispersion sSAPT0              -6.40895509 [mEh]      -4.02168004 [kcal/mol]     -16.82670927 [kJ/mol]
  Total sSAPT0                     -4.15922632 [mEh]      -2.60995392 [kcal/mol]     -10.92004721 [kJ/mol]
  --------------------------------------------------------------------------------------------------------

*** Psi4 exiting successfully. Buy a developer a beer!
