                               Psi4 1.3.2 release

  ==> Input File <==

--------------------------------------------------------------------------
# Any line starting with the # character is a comment line
#! Sample  computation

memory 22 gb

molecule Dimer {
0 1
 C 2.038890   -0.148479    0.002321
 O 1.427027   -1.202498   -0.004022
 N 1.462688    1.079776    0.000070
 H 2.024471    1.910782    0.005966
 H 0.459051    1.158045   -0.006983
 H 3.137678   -0.099969    0.010623

 --
0 1
 C   -2.218436   -0.764116    0.002982
 C   -2.169509    0.759830   -0.002054
 H   -1.216263   -1.190508    0.002674
 H   -2.744281   -1.137837   -0.874533
 H   -2.741445   -1.132120    0.884600
 H   -1.656912    1.134764   -0.889582
 H   -1.654506    1.140567    0.881587
 H   -3.168493    1.194418   -0.002159

units angstrom

no_reorient
symmetry c1
}

set globals{
  basis jun-cc-pvtz
}

energy('sapt0')

--------------------------------------------------------------------------

  //              Dimer HF             //
    Molecular point group: c1
  Charge       = 0
  Multiplicity = 1
  Basis Set: JUN-CC-PVTZ
    Blend: JUN-CC-PVTZ
  Basis Set: (JUN-CC-PVTZ AUX)
    Blend: JUN-CC-PVTZ-JKFIT
  @DF-RHF Final Energy:  -248.26351202696750
    Total Energy =                       -248.2635120269675326
  //            Monomer A HF           //
    Molecular point group: c1
  Multiplicity = 1
  Basis Set: JUN-CC-PVTZ
    Blend: JUN-CC-PVTZ
  Basis Set: (JUN-CC-PVTZ AUX)
    Blend: JUN-CC-PVTZ-JKFIT
  @DF-RHF Final Energy:  -169.00388732397090
    Total Energy =                       -169.0038873239709005
  //            Monomer B HF           //
    Molecular point group: c1

    Geometry (in Angstrom), charge = 0, multiplicity = 1:

       Center              X                  Y                   Z               Mass
    ------------   -----------------  -----------------  -----------------  -----------------
      Gh(C)           1.938997379095    -0.109242743454     0.002481852217    12.000000000000
      Gh(O)           1.327134379095    -1.163261743454    -0.003861147783    15.994914619570
      Gh(N)           1.362795379095     1.119012256546     0.000230852217    14.003074004430
      Gh(H)           1.924578379095     1.950018256546     0.006126852217     1.007825032230
      Gh(H)           0.359158379095     1.197281256546    -0.006822147783     1.007825032230
      Gh(H)           3.037785379095    -0.060732743454     0.010783852217     1.007825032230
         C           -2.318328620905    -0.724879743454     0.003142852217    12.000000000000
         C           -2.269401620905     0.799066256546    -0.001893147783    12.000000000000
         H           -1.316155620905    -1.151271743454     0.002834852217     1.007825032230
         H           -2.844173620905    -1.098600743454    -0.874372147783     1.007825032230
         H           -2.841337620905    -1.092883743454     0.884760852217     1.007825032230
         H           -1.756804620905     1.174000256546    -0.889421147783     1.007825032230
         H           -1.754398620905     1.179803256546     0.881747852217     1.007825032230
         H           -3.268385620905     1.233654256546    -0.001998147783     1.007825032230

  Charge       = 0
  Multiplicity = 1
  Basis Set: JUN-CC-PVTZ
    Blend: JUN-CC-PVTZ
  Basis Set: (JUN-CC-PVTZ AUX)
    Blend: JUN-CC-PVTZ-JKFIT

    Orbital Energies [Eh]
    ---------------------

    Doubly Occupied:

       1A    -11.210736     2A    -11.210089     3A     -1.018286
       4A     -0.841369     5A     -0.597697     6A     -0.596364
       7A     -0.509475     8A     -0.487070     9A     -0.486007

  @DF-RHF Final Energy:   -79.26006792590002

   => Energetics <=

    Nuclear Repulsion Energy =             42.3258093095266972
    One-Electron Energy =                -189.2575697474533172
    Two-Electron Energy =                  67.6716925120265955
    Total Energy =                        -79.2600679259000174

  Dipole Moment: [D]
     X:    -0.0080      Y:    -0.0014      Z:    -0.0000     Total:     0.0081

    SAPT Results
  --------------------------------------------------------------------------------------------------------
    Electrostatics                 -2.44019021 [mEh]      -1.53124247 [kcal/mol]      -6.40671850 [kJ/mol]
      Elst10,r                     -2.44019021 [mEh]      -1.53124247 [kcal/mol]      -6.40671850 [kJ/mol]

    Exchange                        4.40711469 [mEh]       2.76550622 [kcal/mol]      11.57087803 [kJ/mol]
      Exch10                        4.40711469 [mEh]       2.76550622 [kcal/mol]      11.57087803 [kJ/mol]
      Exch10(S^2)                   4.39986777 [mEh]       2.76095871 [kcal/mol]      11.55185125 [kJ/mol]

    Induction                      -1.52370158 [mEh]      -0.95613718 [kcal/mol]      -4.00047795 [kJ/mol]
      Ind20,r                      -1.81783346 [mEh]      -1.14070772 [kcal/mol]      -4.77272109 [kJ/mol]
      Exch-Ind20,r                  0.73372164 [mEh]       0.46041728 [kcal/mol]       1.92638591 [kJ/mol]
      delta HF,r (2)               -0.43958977 [mEh]      -0.27584674 [kcal/mol]      -1.15414277 [kJ/mol]

    Dispersion                     -3.63488914 [mEh]      -2.28092737 [kcal/mol]      -9.54340013 [kJ/mol]
      Disp20                       -4.02411733 [mEh]      -2.52517175 [kcal/mol]     -10.56531860 [kJ/mol]
      Exch-Disp20                   0.38922819 [mEh]       0.24424438 [kcal/mol]       1.02191847 [kJ/mol]
      Disp20 (SS)                  -2.01205867 [mEh]      -1.26258587 [kcal/mol]      -5.28265930 [kJ/mol]
      Disp20 (OS)                  -2.01205867 [mEh]      -1.26258587 [kcal/mol]      -5.28265930 [kJ/mol]
      Exch-Disp20 (SS)              0.25277055 [mEh]       0.15861591 [kcal/mol]       0.66364898 [kJ/mol]
      Exch-Disp20 (OS)              0.13645764 [mEh]       0.08562846 [kcal/mol]       0.35826948 [kJ/mol]

  Total HF                          0.44322290 [mEh]       0.27812657 [kcal/mol]       1.16368157 [kJ/mol]
  Total SAPT0                      -3.19166624 [mEh]      -2.00280080 [kcal/mol]      -8.37971856 [kJ/mol]

  Special recipe for scaled SAPT0 (see Manual):
    Electrostatics sSAPT0          -2.44019021 [mEh]      -1.53124247 [kcal/mol]      -6.40671850 [kJ/mol]
    Exchange sSAPT0                 4.40711469 [mEh]       2.76550622 [kcal/mol]      11.57087803 [kJ/mol]
    Induction sSAPT0               -1.52007012 [mEh]      -0.95385840 [kcal/mol]      -3.99094355 [kJ/mol]
    Dispersion sSAPT0              -3.63296271 [mEh]      -2.27971852 [kcal/mol]      -9.53834228 [kJ/mol]
  Total sSAPT0                     -3.18610834 [mEh]      -1.99931317 [kcal/mol]      -8.36512630 [kJ/mol]
  --------------------------------------------------------------------------------------------------------

*** Psi4 exiting successfully. Buy a developer a beer!
