                               Psi4 1.3.2 release

  ==> Input File <==

--------------------------------------------------------------------------
# Any line starting with the # character is a comment line
#! Sample  computation

memory 22 gb

molecule Dimer {
0 1
 C  0.765943    1.402644   -0.194833
 C  0.840669   -0.055236    0.187621
 O  0.595045   -0.453169    1.317668
 N  1.179986   -0.907475   -0.821841
 H -0.279213    1.655028   -0.372595
 H  1.121734    1.999557    0.639685
 H  1.341018    1.636306   -1.088478
 H  1.165551   -1.895383   -0.635683
 H  1.330685   -0.586107   -1.759171

 --
0 1
 C   -2.733354   -0.091323   -0.152147
 H   -3.591036   -0.751593   -0.057507
 H   -2.042343   -0.270404    0.667432
 H   -2.233792   -0.287365   -1.097842
 H   -3.072413    0.941129   -0.128143

units angstrom

no_reorient
symmetry c1
}

set globals{
  basis jun-cc-pvtz
}

energy('sapt0')

--------------------------------------------------------------------------

  //              Dimer HF             //
    Molecular point group: c1
  Charge       = 0
  Multiplicity = 1
  Basis Set: JUN-CC-PVTZ
    Blend: JUN-CC-PVTZ
  Basis Set: (JUN-CC-PVTZ AUX)
    Blend: JUN-CC-PVTZ-JKFIT
  @DF-RHF Final Energy:  -248.27486845624398
    Total Energy =                       -248.2748684562439507
  //            Monomer A HF           //
    Molecular point group: c1
  Multiplicity = 1
  Basis Set: JUN-CC-PVTZ
    Blend: JUN-CC-PVTZ
  Basis Set: (JUN-CC-PVTZ AUX)
    Blend: JUN-CC-PVTZ-JKFIT
  @DF-RHF Final Energy:  -208.06228470054268
    Total Energy =                       -208.0622847005426763
  //            Monomer B HF           //
    Molecular point group: c1

    Geometry (in Angstrom), charge = 0, multiplicity = 1:

       Center              X                  Y                   Z               Mass
    ------------   -----------------  -----------------  -----------------  -----------------
      Gh(C)           0.683199423562     1.434915213694    -0.245361427732    12.000000000000
      Gh(C)           0.757925423562    -0.022964786306     0.137092572268    12.000000000000
      Gh(O)           0.512301423562    -0.420897786306     1.267139572268    15.994914619570
      Gh(N)           1.097242423562    -0.875203786306    -0.872369427732    14.003074004430
      Gh(H)          -0.361956576438     1.687299213694    -0.423123427732     1.007825032230
      Gh(H)           1.038990423562     2.031828213694     0.589156572268     1.007825032230
      Gh(H)           1.258274423562     1.668577213694    -1.139006427732     1.007825032230
      Gh(H)           1.082807423562    -1.863111786306    -0.686211427732     1.007825032230
      Gh(H)           1.247941423562    -0.553835786306    -1.809699427732     1.007825032230
         C           -2.816097576438    -0.059051786306    -0.202675427732    12.000000000000
         H           -3.673779576438    -0.719321786306    -0.108035427732     1.007825032230
         H           -2.125086576438    -0.238132786306     0.616903572268     1.007825032230
         H           -2.316535576438    -0.255093786306    -1.148370427732     1.007825032230
         H           -3.155156576438     0.973400213694    -0.178671427732     1.007825032230

  Charge       = 0
  Multiplicity = 1
  Basis Set: JUN-CC-PVTZ
    Blend: JUN-CC-PVTZ
  Basis Set: (JUN-CC-PVTZ AUX)
    Blend: JUN-CC-PVTZ-JKFIT

    Orbital Energies [Eh]
    ---------------------

    Doubly Occupied:

       1A    -11.205662     2A     -0.943605     3A     -0.546095
       4A     -0.545154     5A     -0.544602

  @DF-RHF Final Energy:   -40.21352602099258

   => Energetics <=

    Nuclear Repulsion Energy =             13.4733929968873216
    One-Electron Energy =                 -79.8036054134382908
    Two-Electron Energy =                  26.1166863955583786
    Total Energy =                        -40.2135260209925889

  Dipole Moment: [D]
     X:    -0.0033      Y:    -0.0008      Z:    -0.0017     Total:     0.0038

    SAPT Results
  --------------------------------------------------------------------------------------------------------
    Electrostatics                 -1.67999905 [mEh]      -1.05421532 [kcal/mol]      -4.41083691 [kJ/mol]
      Elst10,r                     -1.67999905 [mEh]      -1.05421532 [kcal/mol]      -4.41083691 [kJ/mol]

    Exchange                        3.19126769 [mEh]       2.00255071 [kcal/mol]       8.37867217 [kJ/mol]
      Exch10                        3.19126769 [mEh]       2.00255071 [kcal/mol]       8.37867217 [kJ/mol]
      Exch10(S^2)                   3.18623575 [mEh]       1.99939312 [kcal/mol]       8.36546082 [kJ/mol]

    Induction                      -0.56900335 [mEh]      -0.35705499 [kcal/mol]      -1.49391808 [kJ/mol]
      Ind20,r                      -0.93414343 [mEh]      -0.58618385 [kcal/mol]      -2.45259324 [kJ/mol]
      Exch-Ind20,r                  0.57179832 [mEh]       0.35880886 [kcal/mol]       1.50125629 [kJ/mol]
      delta HF,r (2)               -0.20665824 [mEh]      -0.12968000 [kcal/mol]      -0.54258113 [kJ/mol]

    Dispersion                     -3.37074625 [mEh]      -2.11517521 [kcal/mol]      -8.84989307 [kJ/mol]
      Disp20                       -3.70038301 [mEh]      -2.32202539 [kcal/mol]      -9.71535425 [kJ/mol]
      Exch-Disp20                   0.32963675 [mEh]       0.20685019 [kcal/mol]       0.86546118 [kJ/mol]
      Disp20 (SS)                  -1.85019150 [mEh]      -1.16101270 [kcal/mol]      -4.85767712 [kJ/mol]
      Disp20 (OS)                  -1.85019150 [mEh]      -1.16101270 [kcal/mol]      -4.85767712 [kJ/mol]
      Exch-Disp20 (SS)              0.21698672 [mEh]       0.13616122 [kcal/mol]       0.56969856 [kJ/mol]
      Exch-Disp20 (OS)              0.11265003 [mEh]       0.07068896 [kcal/mol]       0.29576262 [kJ/mol]

  Total HF                          0.94226529 [mEh]       0.59128040 [kcal/mol]       2.47391718 [kJ/mol]
  Total SAPT0                      -2.42848096 [mEh]      -1.52389481 [kcal/mol]      -6.37597589 [kJ/mol]

  Special recipe for scaled SAPT0 (see Manual):
    Electrostatics sSAPT0          -1.67999905 [mEh]      -1.05421532 [kcal/mol]      -4.41083691 [kJ/mol]
    Exchange sSAPT0                 3.19126769 [mEh]       2.00255071 [kcal/mol]       8.37867217 [kJ/mol]
    Induction sSAPT0               -0.56628999 [mEh]      -0.35535233 [kcal/mol]      -1.48679416 [kJ/mol]
    Dispersion sSAPT0              -3.36918203 [mEh]      -2.11419364 [kcal/mol]      -8.84578619 [kJ/mol]
  Total sSAPT0                     -2.42420338 [mEh]      -1.52121059 [kcal/mol]      -6.36474509 [kJ/mol]
  --------------------------------------------------------------------------------------------------------

*** Psi4 exiting successfully. Buy a developer a beer!
