                               Psi4 1.3.2 release

  ==> Input File <==

--------------------------------------------------------------------------
# Any line starting with the # character is a comment line
#! Sample  computation

memory 22 gb

molecule Dimer {
0 1
 C  0.613201    0.772942   -0.734711
 C  0.779820   -0.445218    0.152392
 O  0.618929   -0.421219    1.364429
 N  1.138383   -1.586206   -0.507272
 H  1.167686   -2.445450    0.013941
 H  1.159205   -1.624909   -1.509453
 C  0.331119    2.032051    0.065810
 H  1.146445    2.239755    0.755481
 H  0.209421    2.886002   -0.598771
 H -0.575248    1.915196    0.655462
 H  1.517015    0.884914   -1.338028
 H -0.202855    0.566200   -1.431876

 --
0 1
 C   -2.768086   -0.410382   -0.080726
 H   -3.742627   -0.736104    0.272502
 H   -2.413087   -1.102662   -0.840303
 H   -2.856162    0.584905   -0.509066
 H   -2.066242   -0.391006    0.748994

units angstrom

no_reorient
symmetry c1
}

set globals{
  basis jun-cc-pvtz
}

energy('sapt0')

--------------------------------------------------------------------------

  //              Dimer HF             //
    Molecular point group: c1
  Charge       = 0
  Multiplicity = 1
  Basis Set: JUN-CC-PVTZ
    Blend: JUN-CC-PVTZ
  Basis Set: (JUN-CC-PVTZ AUX)
    Blend: JUN-CC-PVTZ-JKFIT
  @DF-RHF Final Energy:  -287.32244224580381
    Total Energy =                       -287.3224422458038134
  //            Monomer A HF           //
    Molecular point group: c1
  Multiplicity = 1
  Basis Set: JUN-CC-PVTZ
    Blend: JUN-CC-PVTZ
  Basis Set: (JUN-CC-PVTZ AUX)
    Blend: JUN-CC-PVTZ-JKFIT
  @DF-RHF Final Energy:  -247.11027876349215
    Total Energy =                       -247.1102787634921469
  //            Monomer B HF           //
    Molecular point group: c1

    Geometry (in Angstrom), charge = 0, multiplicity = 1:

       Center              X                  Y                   Z               Mass
    ------------   -----------------  -----------------  -----------------  -----------------
      Gh(C)           0.539061028359     0.803899681452    -0.776727871184    12.000000000000
      Gh(C)           0.705680028359    -0.414260318548     0.110375128816    12.000000000000
      Gh(O)           0.544789028359    -0.390261318548     1.322412128816    15.994914619570
      Gh(N)           1.064243028359    -1.555248318548    -0.549288871184    14.003074004430
      Gh(H)           1.093546028359    -2.414492318548    -0.028075871184     1.007825032230
      Gh(H)           1.085065028359    -1.593951318548    -1.551469871184     1.007825032230
      Gh(C)           0.256979028359     2.063008681452     0.023793128816    12.000000000000
      Gh(H)           1.072305028359     2.270712681452     0.713464128816     1.007825032230
      Gh(H)           0.135281028359     2.916959681452    -0.640787871184     1.007825032230
      Gh(H)          -0.649387971641     1.946153681452     0.613445128816     1.007825032230
      Gh(H)           1.442875028359     0.915871681452    -1.380044871184     1.007825032230
      Gh(H)          -0.276994971641     0.597157681452    -1.473892871184     1.007825032230
         C           -2.842225971641    -0.379424318548    -0.122742871184    12.000000000000
         H           -3.816766971641    -0.705146318548     0.230485128816     1.007825032230
         H           -2.487226971641    -1.071704318548    -0.882319871184     1.007825032230
         H           -2.930301971641     0.615862681452    -0.551082871184     1.007825032230
         H           -2.140381971641    -0.360048318548     0.706977128816     1.007825032230

  Charge       = 0
  Multiplicity = 1
  Basis Set: JUN-CC-PVTZ
    Blend: JUN-CC-PVTZ
  Basis Set: (JUN-CC-PVTZ AUX)
    Blend: JUN-CC-PVTZ-JKFIT

    Orbital Energies [Eh]
    ---------------------

    Doubly Occupied:

       1A    -11.205684     2A     -0.943581     3A     -0.545943
       4A     -0.545247     5A     -0.544620

  @DF-RHF Final Energy:   -40.21353099380946

   => Energetics <=

    Nuclear Repulsion Energy =             13.4727957598623664
    One-Electron Energy =                 -79.8025034901692010
    Two-Electron Energy =                  26.1161767364973727
    Total Energy =                        -40.2135309938094636

  Dipole Moment: [D]
     X:    -0.0029      Y:    -0.0010      Z:    -0.0014     Total:     0.0033

    SAPT Results
  --------------------------------------------------------------------------------------------------------
    Electrostatics                 -1.79548282 [mEh]      -1.12668248 [kcal/mol]      -4.71403949 [kJ/mol]
      Elst10,r                     -1.79548282 [mEh]      -1.12668248 [kcal/mol]      -4.71403949 [kJ/mol]

    Exchange                        3.70429486 [mEh]       2.32448012 [kcal/mol]       9.72562482 [kJ/mol]
      Exch10                        3.70429486 [mEh]       2.32448012 [kcal/mol]       9.72562482 [kJ/mol]
      Exch10(S^2)                   3.69891144 [mEh]       2.32110197 [kcal/mol]       9.71149064 [kJ/mol]

    Induction                      -0.54130055 [mEh]      -0.33967122 [kcal/mol]      -1.42118439 [kJ/mol]
      Ind20,r                      -0.96269494 [mEh]      -0.60410020 [kcal/mol]      -2.52755523 [kJ/mol]
      Exch-Ind20,r                  0.64536960 [mEh]       0.40497554 [kcal/mol]       1.69441765 [kJ/mol]
      delta HF,r (2)               -0.22397520 [mEh]      -0.14054656 [kcal/mol]      -0.58804681 [kJ/mol]

    Dispersion                     -4.24780193 [mEh]      -2.66553595 [kcal/mol]     -11.15260242 [kJ/mol]
      Disp20                       -4.64311385 [mEh]      -2.91359793 [kcal/mol]     -12.19049374 [kJ/mol]
      Exch-Disp20                   0.39531193 [mEh]       0.24806198 [kcal/mol]       1.03789133 [kJ/mol]
      Disp20 (SS)                  -2.32155693 [mEh]      -1.45679897 [kcal/mol]      -6.09524687 [kJ/mol]
      Disp20 (OS)                  -2.32155693 [mEh]      -1.45679897 [kcal/mol]      -6.09524687 [kJ/mol]
      Exch-Disp20 (SS)              0.26154260 [mEh]       0.16412046 [kcal/mol]       0.68668001 [kJ/mol]
      Exch-Disp20 (OS)              0.13376933 [mEh]       0.08394152 [kcal/mol]       0.35121132 [kJ/mol]

  Total HF                          1.36751150 [mEh]       0.85812642 [kcal/mol]       3.59040094 [kJ/mol]
  Total SAPT0                      -2.88029043 [mEh]      -1.80740953 [kcal/mol]      -7.56220148 [kJ/mol]

  Special recipe for scaled SAPT0 (see Manual):
    Electrostatics sSAPT0          -1.79548282 [mEh]      -1.12668248 [kcal/mol]      -4.71403949 [kJ/mol]
    Exchange sSAPT0                 3.70429486 [mEh]       2.32448012 [kcal/mol]       9.72562482 [kJ/mol]
    Induction sSAPT0               -0.53847861 [mEh]      -0.33790043 [kcal/mol]      -1.41377541 [kJ/mol]
    Dispersion sSAPT0              -4.24607339 [mEh]      -2.66445128 [kcal/mol]     -11.14806415 [kJ/mol]
  Total sSAPT0                     -2.87573996 [mEh]      -1.80455407 [kcal/mol]      -7.55025423 [kJ/mol]
  --------------------------------------------------------------------------------------------------------

*** Psi4 exiting successfully. Buy a developer a beer!
