                               Psi4 1.3.2 release

  ==> Input File <==

--------------------------------------------------------------------------
# Any line starting with the # character is a comment line
#! Sample  computation

memory 22 gb

molecule Dimer {
0 1
 C  1.484051   -0.086037    0.000035
 O  0.973864   -1.192736    0.000077
 N  0.795005    1.083093   -0.000073
 H  1.275748    1.963314   -0.000106
 H -0.211074    1.064283   -0.000093
 H  2.573490    0.065568    0.000077

 --
0 1
 C   -2.587841   -0.061689   -0.000019
 H   -1.767838   -0.775646   -0.000024
 H   -2.534567    0.561419    0.890078
 H   -2.534321    0.561758   -0.889869
 H   -3.534643   -0.594103   -0.000264

units angstrom

no_reorient
symmetry c1
}

set globals{
  basis jun-cc-pvtz
}

energy('sapt0')

--------------------------------------------------------------------------

  //              Dimer HF             //
    Molecular point group: c1
  Charge       = 0
  Multiplicity = 1
  Basis Set: JUN-CC-PVTZ
    Blend: JUN-CC-PVTZ
  Basis Set: (JUN-CC-PVTZ AUX)
    Blend: JUN-CC-PVTZ-JKFIT
  @DF-RHF Final Energy:  -209.21707960136970
    Total Energy =                       -209.2170796013697043
  //            Monomer A HF           //
    Molecular point group: c1
  Multiplicity = 1
  Basis Set: JUN-CC-PVTZ
    Blend: JUN-CC-PVTZ
  Basis Set: (JUN-CC-PVTZ AUX)
    Blend: JUN-CC-PVTZ-JKFIT
  @DF-RHF Final Energy:  -169.00388139044986
    Total Energy =                       -169.0038813904498625
  //            Monomer B HF           //
    Molecular point group: c1

    Geometry (in Angstrom), charge = 0, multiplicity = 1:

       Center              X                  Y                   Z               Mass
    ------------   -----------------  -----------------  -----------------  -----------------
      Gh(C)           1.374669992282    -0.039930596431     0.000031743617    12.000000000000
      Gh(O)           0.864482992282    -1.146629596431     0.000073743617    15.994914619570
      Gh(N)           0.685623992282     1.129199403569    -0.000076256383    14.003074004430
      Gh(H)           1.166366992282     2.009420403569    -0.000109256383     1.007825032230
      Gh(H)          -0.320455007718     1.110389403569    -0.000096256383     1.007825032230
      Gh(H)           2.464108992282     0.111674403569     0.000073743617     1.007825032230
         C           -2.697222007718    -0.015582596431    -0.000022256383    12.000000000000
         H           -1.877219007718    -0.729539596431    -0.000027256383     1.007825032230
         H           -2.643948007718     0.607525403569     0.890074743617     1.007825032230
         H           -2.643702007718     0.607864403569    -0.889872256383     1.007825032230
         H           -3.644024007718    -0.547996596431    -0.000267256383     1.007825032230

  Charge       = 0
  Multiplicity = 1
  Basis Set: JUN-CC-PVTZ
    Blend: JUN-CC-PVTZ
  Basis Set: (JUN-CC-PVTZ AUX)
    Blend: JUN-CC-PVTZ-JKFIT

    Orbital Energies [Eh]
    ---------------------

    Doubly Occupied:

       1A    -11.205832     2A     -0.943461     3A     -0.546327
       4A     -0.545628     5A     -0.543604

  @DF-RHF Final Energy:   -40.21349589975995

   => Energetics <=

    Nuclear Repulsion Energy =             13.4689257888637286
    One-Electron Energy =                 -79.7951418046008314
    Two-Electron Energy =                  26.1127201159771545
    Total Energy =                        -40.2134958997599483

  Dipole Moment: [D]
     X:    -0.0072      Y:    -0.0009      Z:     0.0000     Total:     0.0072

    SAPT Results
  --------------------------------------------------------------------------------------------------------
    Electrostatics                 -2.09200330 [mEh]      -1.31275189 [kcal/mol]      -5.49255392 [kJ/mol]
      Elst10,r                     -2.09200330 [mEh]      -1.31275189 [kcal/mol]      -5.49255392 [kJ/mol]

    Exchange                        3.44775028 [mEh]       2.16349597 [kcal/mol]       9.05206712 [kJ/mol]
      Exch10                        3.44775028 [mEh]       2.16349597 [kcal/mol]       9.05206712 [kJ/mol]
      Exch10(S^2)                   3.43977084 [mEh]       2.15848879 [kcal/mol]       9.03111708 [kJ/mol]

    Induction                      -1.05805814 [mEh]      -0.66394151 [kcal/mol]      -2.77793126 [kJ/mol]
      Ind20,r                      -1.35176685 [mEh]      -0.84824651 [kcal/mol]      -3.54906338 [kJ/mol]
      Exch-Ind20,r                  0.60453786 [mEh]       0.37935323 [kcal/mol]       1.58721393 [kJ/mol]
      delta HF,r (2)               -0.31082915 [mEh]      -0.19504823 [kcal/mol]      -0.81608181 [kJ/mol]

    Dispersion                     -2.77717693 [mEh]      -1.74270484 [kcal/mol]      -7.29147703 [kJ/mol]
      Disp20                       -3.07837737 [mEh]      -1.93171096 [kcal/mol]      -8.08227866 [kJ/mol]
      Exch-Disp20                   0.30120043 [mEh]       0.18900612 [kcal/mol]       0.79080163 [kJ/mol]
      Disp20 (SS)                  -1.53918868 [mEh]      -0.96585548 [kcal/mol]      -4.04113933 [kJ/mol]
      Disp20 (OS)                  -1.53918868 [mEh]      -0.96585548 [kcal/mol]      -4.04113933 [kJ/mol]
      Exch-Disp20 (SS)              0.19761597 [mEh]       0.12400590 [kcal/mol]       0.51884067 [kJ/mol]
      Exch-Disp20 (OS)              0.10358446 [mEh]       0.06500023 [kcal/mol]       0.27196096 [kJ/mol]

  Total HF                          0.29768884 [mEh]       0.18680257 [kcal/mol]       0.78158194 [kJ/mol]
  Total SAPT0                      -2.47948809 [mEh]      -1.55590227 [kcal/mol]      -6.50989509 [kJ/mol]

  Special recipe for scaled SAPT0 (see Manual):
    Electrostatics sSAPT0          -2.09200330 [mEh]      -1.31275189 [kcal/mol]      -5.49255392 [kJ/mol]
    Exchange sSAPT0                 3.44775028 [mEh]       2.16349597 [kcal/mol]       9.05206712 [kJ/mol]
    Induction sSAPT0               -1.05384122 [mEh]      -0.66129535 [kcal/mol]      -2.76685974 [kJ/mol]
    Dispersion sSAPT0              -2.77507593 [mEh]      -1.74138644 [kcal/mol]      -7.28596084 [kJ/mol]
  Total sSAPT0                     -2.47317017 [mEh]      -1.55193771 [kcal/mol]      -6.49330739 [kJ/mol]
  --------------------------------------------------------------------------------------------------------

*** Psi4 exiting successfully. Buy a developer a beer!
