                               Psi4 1.3.2 release

  ==> Input File <==

--------------------------------------------------------------------------
# Any line starting with the # character is a comment line
#! Sample  computation

memory 22 gb

molecule Dimer {
0 1
 C -1.813251    1.242880   -0.505065
 C -1.523615   -0.049506    0.218732
 O -1.114543   -0.073825    1.371783
 N -1.755868   -1.190636   -0.489941
 H -2.170429    1.098191   -1.522255
 H -2.558452    1.795263    0.063521
 H -0.900733    1.835965   -0.521819
 H -1.514250   -2.069810   -0.065233
 H -2.006867   -1.168673   -1.460151

 --
0 1
 C   1.984339    1.257297    0.232723
 C   1.870414    0.040334   -0.677932
 C   1.949548   -1.262547    0.108607
 H   1.190649    1.248498    0.980968
 H   2.939835    1.252624    0.759350
 H   1.920075    2.189760   -0.329290
 H   2.660782    0.066888   -1.431591
 H   0.924748    0.077202   -1.224667
 H   1.857217   -2.132300   -0.542683
 H   2.904459   -1.337200    0.631032
 H   1.155778   -1.302098    0.855750

units angstrom

no_reorient
symmetry c1
}

set globals{
  basis jun-cc-pvtz
}

energy('sapt0')

--------------------------------------------------------------------------

  //              Dimer HF             //
    Molecular point group: c1
  Charge       = 0
  Multiplicity = 1
  Basis Set: JUN-CC-PVTZ
    Blend: JUN-CC-PVTZ
  Basis Set: (JUN-CC-PVTZ AUX)
    Blend: JUN-CC-PVTZ-JKFIT
  @DF-RHF Final Energy:  -326.36767056918546
    Total Energy =                       -326.3676705691854636
  //            Monomer A HF           //
    Molecular point group: c1
  Multiplicity = 1
  Basis Set: JUN-CC-PVTZ
    Blend: JUN-CC-PVTZ
  Basis Set: (JUN-CC-PVTZ AUX)
    Blend: JUN-CC-PVTZ-JKFIT
  @DF-RHF Final Energy:  -208.06222387238893
    Total Energy =                       -208.0622238723889268
  //            Monomer B HF           //
    Molecular point group: c1

    Geometry (in Angstrom), charge = 0, multiplicity = 1:

       Center              X                  Y                   Z               Mass
    ------------   -----------------  -----------------  -----------------  -----------------
      Gh(C)          -1.751636518141     1.257869566951    -0.541619839031    12.000000000000
      Gh(C)          -1.462000518141    -0.034516433049     0.182177160969    12.000000000000
      Gh(O)          -1.052928518141    -0.058835433049     1.335228160969    15.994914619570
      Gh(N)          -1.694253518141    -1.175646433049    -0.526495839031    14.003074004430
      Gh(H)          -2.108814518141     1.113180566951    -1.558809839031     1.007825032230
      Gh(H)          -2.496837518141     1.810252566951     0.026966160969     1.007825032230
      Gh(H)          -0.839118518141     1.850954566951    -0.558373839031     1.007825032230
      Gh(H)          -1.452635518141    -2.054820433049    -0.101787839031     1.007825032230
      Gh(H)          -1.945252518141    -1.153683433049    -1.496705839031     1.007825032230
         C            2.045953481859     1.272286566951     0.196168160969    12.000000000000
         C            1.932028481859     0.055323566951    -0.714486839031    12.000000000000
         C            2.011162481859    -1.247557433049     0.072052160969    12.000000000000
         H            1.252263481859     1.263487566951     0.944413160969     1.007825032230
         H            3.001449481859     1.267613566951     0.722795160969     1.007825032230
         H            1.981689481859     2.204749566951    -0.365844839031     1.007825032230
         H            2.722396481859     0.081877566951    -1.468145839031     1.007825032230
         H            0.986362481859     0.092191566951    -1.261221839031     1.007825032230
         H            1.918831481859    -2.117310433049    -0.579237839031     1.007825032230
         H            2.966073481859    -1.322210433049     0.594477160969     1.007825032230
         H            1.217392481859    -1.287108433049     0.819195160969     1.007825032230

  Charge       = 0
  Multiplicity = 1
  Basis Set: JUN-CC-PVTZ
    Blend: JUN-CC-PVTZ
  Basis Set: (JUN-CC-PVTZ AUX)
    Blend: JUN-CC-PVTZ-JKFIT

    Orbital Energies [Eh]
    ---------------------

    Doubly Occupied:

       1A    -11.215581     2A    -11.208017     3A    -11.207923
       4A     -1.054107     5A     -0.924415     6A     -0.799485
       7A     -0.624905     8A     -0.598557     9A     -0.548942
      10A     -0.530405    11A     -0.475730    12A     -0.474435
      13A     -0.467915

  @DF-RHF Final Energy:  -118.30799949063410

   => Energetics <=

    Nuclear Repulsion Energy =             82.8360395919465304
    One-Electron Energy =                -322.0272434787898419
    Two-Electron Energy =                 120.8832043962092087
    Total Energy =                       -118.3079994906341028

  Dipole Moment: [D]
     X:    -0.0046      Y:     0.0044      Z:    -0.0833     Total:     0.0836

    SAPT Results
  --------------------------------------------------------------------------------------------------------
    Electrostatics                 -3.38110555 [mEh]      -2.12167576 [kcal/mol]      -8.87709140 [kJ/mol]
      Elst10,r                     -3.38110555 [mEh]      -2.12167576 [kcal/mol]      -8.87709140 [kJ/mol]

    Exchange                        7.33271308 [mEh]       4.60134693 [kcal/mol]      19.25203555 [kJ/mol]
      Exch10                        7.33271308 [mEh]       4.60134693 [kcal/mol]      19.25203555 [kJ/mol]
      Exch10(S^2)                   7.32097410 [mEh]       4.59398061 [kcal/mol]      19.22121485 [kJ/mol]

    Induction                      -1.39881370 [mEh]      -0.87776885 [kcal/mol]      -3.67258486 [kJ/mol]
      Ind20,r                      -2.32396991 [mEh]      -1.45831314 [kcal/mol]      -6.10158217 [kJ/mol]
      Exch-Ind20,r                  1.44808262 [mEh]       0.90868557 [kcal/mol]       3.80194041 [kJ/mol]
      delta HF,r (2)               -0.52292641 [mEh]      -0.32814128 [kcal/mol]      -1.37294310 [kJ/mol]

    Dispersion                     -7.80023212 [mEh]      -4.89471955 [kcal/mol]     -20.47950660 [kJ/mol]
      Disp20                       -8.63264283 [mEh]      -5.41706516 [kcal/mol]     -22.66500063 [kJ/mol]
      Exch-Disp20                   0.83241071 [mEh]       0.52234561 [kcal/mol]       2.18549403 [kJ/mol]
      Disp20 (SS)                  -4.31632142 [mEh]      -2.70853258 [kcal/mol]     -11.33250031 [kJ/mol]
      Disp20 (OS)                  -4.31632142 [mEh]      -2.70853258 [kcal/mol]     -11.33250031 [kJ/mol]
      Exch-Disp20 (SS)              0.53514482 [mEh]       0.33580845 [kcal/mol]       1.40502254 [kJ/mol]
      Exch-Disp20 (OS)              0.29726589 [mEh]       0.18653716 [kcal/mol]       0.78047149 [kJ/mol]

  Total HF                          2.55279384 [mEh]       1.60190232 [kcal/mol]       6.70235930 [kJ/mol]
  Total SAPT0                      -5.24743828 [mEh]      -3.29281723 [kcal/mol]     -13.77714730 [kJ/mol]

  Special recipe for scaled SAPT0 (see Manual):
    Electrostatics sSAPT0          -3.38110555 [mEh]      -2.12167576 [kcal/mol]      -8.87709140 [kJ/mol]
    Exchange sSAPT0                 7.33271308 [mEh]       4.60134693 [kcal/mol]      19.25203555 [kJ/mol]
    Induction sSAPT0               -1.39183664 [mEh]      -0.87339068 [kcal/mol]      -3.65426659 [kJ/mol]
    Dispersion sSAPT0              -7.79622145 [mEh]      -4.89220282 [kcal/mol]     -20.46897659 [kJ/mol]
  Total sSAPT0                     -5.23645055 [mEh]      -3.28592233 [kcal/mol]     -13.74829902 [kJ/mol]
  --------------------------------------------------------------------------------------------------------

*** Psi4 exiting successfully. Buy a developer a beer!
