                               Psi4 1.3.2 release

  ==> Input File <==

--------------------------------------------------------------------------
# Any line starting with the # character is a comment line
#! Sample  computation

memory 22 gb

molecule Dimer {
0 1
 C -1.439324    0.654744   -0.832134
 C -1.525504   -0.354671    0.294952
 O -1.052374   -0.159726    1.406342
 N -2.169131   -1.515877   -0.023015
 H -2.147505   -2.267166    0.645187
 H -2.453222   -1.712522   -0.964934
 C -1.072424    2.041559   -0.331583
 H -0.135386    2.011340    0.219634
 H -0.968396    2.733267   -1.166126
 H -1.837986    2.422936    0.341725
 H -0.683842    0.286006   -1.532018
 H -2.387156    0.667486   -1.374227

 --
0 1
 C   1.920046   -1.318616   -0.707597
 C   2.359021    0.129921   -0.526743
 C   2.476009    0.505935    0.945551
 H   2.653950   -1.998540   -0.272350
 H   0.969617   -1.498384   -0.202968
 H   1.805983   -1.580136   -1.760183
 H   1.644395    0.795370   -1.016910
 H   3.316578    0.286747   -1.028292
 H   2.791886    1.541806    1.070521
 H   1.518088    0.376755    1.451082
 H   3.208962   -0.129244    1.445541

units angstrom

no_reorient
symmetry c1
}

set globals{
  basis jun-cc-pvtz
}

energy('sapt0')

--------------------------------------------------------------------------

  //              Dimer HF             //
    Molecular point group: c1
  Charge       = 0
  Multiplicity = 1
  Basis Set: JUN-CC-PVTZ
    Blend: JUN-CC-PVTZ
  Basis Set: (JUN-CC-PVTZ AUX)
    Blend: JUN-CC-PVTZ-JKFIT
  @DF-RHF Final Energy:  -365.41560468636641
    Total Energy =                       -365.4156046863664642
  //            Monomer A HF           //
    Molecular point group: c1
  Multiplicity = 1
  Basis Set: JUN-CC-PVTZ
    Blend: JUN-CC-PVTZ
  Basis Set: (JUN-CC-PVTZ AUX)
    Blend: JUN-CC-PVTZ-JKFIT
  @DF-RHF Final Energy:  -247.11025403157194
    Total Energy =                       -247.1102540315719125
  //            Monomer B HF           //
    Molecular point group: c1

    Geometry (in Angstrom), charge = 0, multiplicity = 1:

       Center              X                  Y                   Z               Mass
    ------------   -----------------  -----------------  -----------------  -----------------
      Gh(C)          -1.377502999124     0.671175742159    -0.867181869911    12.000000000000
      Gh(C)          -1.463682999124    -0.338239257841     0.259904130089    12.000000000000
      Gh(O)          -0.990552999124    -0.143294257841     1.371294130089    15.994914619570
      Gh(N)          -2.107309999124    -1.499445257841    -0.058062869911    14.003074004430
      Gh(H)          -2.085683999124    -2.250734257841     0.610139130089     1.007825032230
      Gh(H)          -2.391400999124    -1.696090257841    -0.999981869911     1.007825032230
      Gh(C)          -1.010602999124     2.057990742159    -0.366630869911    12.000000000000
      Gh(H)          -0.073564999124     2.027771742159     0.184586130089     1.007825032230
      Gh(H)          -0.906574999124     2.749698742159    -1.201173869911     1.007825032230
      Gh(H)          -1.776164999124     2.439367742159     0.306677130089     1.007825032230
      Gh(H)          -0.622020999124     0.302437742159    -1.567065869911     1.007825032230
      Gh(H)          -2.325334999124     0.683917742159    -1.409274869911     1.007825032230
         C            1.981867000876    -1.302184257841    -0.742644869911    12.000000000000
         C            2.420842000876     0.146352742159    -0.561790869911    12.000000000000
         C            2.537830000876     0.522366742159     0.910503130089    12.000000000000
         H            2.715771000876    -1.982108257841    -0.307397869911     1.007825032230
         H            1.031438000876    -1.481952257841    -0.238015869911     1.007825032230
         H            1.867804000876    -1.563704257841    -1.795230869911     1.007825032230
         H            1.706216000876     0.811801742159    -1.051957869911     1.007825032230
         H            3.378399000876     0.303178742159    -1.063339869911     1.007825032230
         H            2.853707000876     1.558237742159     1.035473130089     1.007825032230
         H            1.579909000876     0.393186742159     1.416034130089     1.007825032230
         H            3.270783000876    -0.112812257841     1.410493130089     1.007825032230

  Charge       = 0
  Multiplicity = 1
  Basis Set: JUN-CC-PVTZ
    Blend: JUN-CC-PVTZ
  Basis Set: (JUN-CC-PVTZ AUX)
    Blend: JUN-CC-PVTZ-JKFIT

    Orbital Energies [Eh]
    ---------------------

    Doubly Occupied:

       1A    -11.215649     2A    -11.208003     3A    -11.207925
       4A     -1.053983     5A     -0.924485     6A     -0.799726
       7A     -0.624625     8A     -0.598471     9A     -0.549183
      10A     -0.530128    11A     -0.475945    12A     -0.474518
      13A     -0.467832

  @DF-RHF Final Energy:  -118.30802665261054

   => Energetics <=

    Nuclear Repulsion Energy =             82.8222108111369693
    One-Electron Energy =                -321.9995277663820161
    Two-Electron Energy =                 120.8692903026344965
    Total Energy =                       -118.3080266526105362

  Dipole Moment: [D]
     X:     0.0200      Y:     0.0525      Z:    -0.0615     Total:     0.0833

    SAPT Results
  --------------------------------------------------------------------------------------------------------
    Electrostatics                 -2.78619813 [mEh]      -1.74836572 [kcal/mol]      -7.31516219 [kJ/mol]
      Elst10,r                     -2.78619813 [mEh]      -1.74836572 [kcal/mol]      -7.31516219 [kJ/mol]

    Exchange                        6.63369518 [mEh]       4.16270657 [kcal/mol]      17.41676431 [kJ/mol]
      Exch10                        6.63369518 [mEh]       4.16270657 [kcal/mol]      17.41676431 [kJ/mol]
      Exch10(S^2)                   6.62405165 [mEh]       4.15665517 [kcal/mol]      17.39144522 [kJ/mol]

    Induction                      -1.17149923 [mEh]      -0.73512687 [kcal/mol]      -3.07577081 [kJ/mol]
      Ind20,r                      -1.97034786 [mEh]      -1.23641195 [kcal/mol]      -5.17314759 [kJ/mol]
      Exch-Ind20,r                  1.25886447 [mEh]       0.78994938 [kcal/mol]       3.30514820 [kJ/mol]
      delta HF,r (2)               -0.46001584 [mEh]      -0.28866430 [kcal/mol]      -1.20777143 [kJ/mol]

    Dispersion                     -7.72107814 [mEh]      -4.84504968 [kcal/mol]     -20.27168787 [kJ/mol]
      Disp20                       -8.47534539 [mEh]      -5.31835953 [kcal/mol]     -22.25201626 [kJ/mol]
      Exch-Disp20                   0.75426725 [mEh]       0.47330985 [kcal/mol]       1.98032839 [kJ/mol]
      Disp20 (SS)                  -4.23767270 [mEh]      -2.65917976 [kcal/mol]     -11.12600813 [kJ/mol]
      Disp20 (OS)                  -4.23767270 [mEh]      -2.65917976 [kcal/mol]     -11.12600813 [kJ/mol]
      Exch-Disp20 (SS)              0.48835653 [mEh]       0.30644835 [kcal/mol]       1.28217990 [kJ/mol]
      Exch-Disp20 (OS)              0.26591072 [mEh]       0.16686149 [kcal/mol]       0.69814849 [kJ/mol]

  Total HF                          2.67599782 [mEh]       1.67921398 [kcal/mol]       7.02583130 [kJ/mol]
  Total SAPT0                      -5.04508033 [mEh]      -3.16583570 [kcal/mol]     -13.24585657 [kJ/mol]

  Special recipe for scaled SAPT0 (see Manual):
    Electrostatics sSAPT0          -2.78619813 [mEh]      -1.74836572 [kcal/mol]      -7.31516219 [kJ/mol]
    Exchange sSAPT0                 6.63369518 [mEh]       4.16270657 [kcal/mol]      17.41676431 [kJ/mol]
    Induction sSAPT0               -1.16599313 [mEh]      -0.73167173 [kcal/mol]      -3.06131453 [kJ/mol]
    Dispersion sSAPT0              -7.71777908 [mEh]      -4.84297949 [kcal/mol]     -20.26302617 [kJ/mol]
  Total sSAPT0                     -5.03627515 [mEh]      -3.16031037 [kcal/mol]     -13.22273859 [kJ/mol]
  --------------------------------------------------------------------------------------------------------

*** Psi4 exiting successfully. Buy a developer a beer!
