                               Psi4 1.3.2 release

  ==> Input File <==

--------------------------------------------------------------------------
# Any line starting with the # character is a comment line
#! Sample  computation

memory 22 gb

molecule Dimer {
0 1
 C 2.157709   -0.449437    0.071021
 O 1.327598   -1.137577   -0.497970
 N 2.050313    0.889461    0.261783
 H 2.767973    1.399934    0.742008
 H 1.233979    1.373488   -0.073652
 H 3.086510   -0.863636    0.489953

 --
0 1
 C   -1.385159    1.224043   -0.580087
 C   -1.644182    0.285518    0.592633
 C   -2.153767   -1.070085    0.120731
 H   -0.667854    0.777009   -1.270554
 H   -2.304319    1.410706   -1.137096
 H   -1.003718    2.193351   -0.250898
 H   -2.366546    0.741225    1.273462
 H   -0.722501    0.143044    1.160513
 H   -2.356238   -1.735360    0.959709
 H   -3.077111   -0.958269   -0.449960
 H   -1.410754   -1.547339   -0.517988

units angstrom

no_reorient
symmetry c1
}

set globals{
  basis jun-cc-pvtz
}

energy('sapt0')

--------------------------------------------------------------------------

  //              Dimer HF             //
    Molecular point group: c1
  Charge       = 0
  Multiplicity = 1
  Basis Set: JUN-CC-PVTZ
    Blend: JUN-CC-PVTZ
  Basis Set: (JUN-CC-PVTZ AUX)
    Blend: JUN-CC-PVTZ-JKFIT
  @DF-RHF Final Energy:  -287.31052529581086
    Total Energy =                       -287.3105252958108622
  //            Monomer A HF           //
    Molecular point group: c1
  Multiplicity = 1
  Basis Set: JUN-CC-PVTZ
    Blend: JUN-CC-PVTZ
  Basis Set: (JUN-CC-PVTZ AUX)
    Blend: JUN-CC-PVTZ-JKFIT
  @DF-RHF Final Energy:  -169.00388814514119
    Total Energy =                       -169.0038881451411896
  //            Monomer B HF           //
    Molecular point group: c1

    Geometry (in Angstrom), charge = 0, multiplicity = 1:

       Center              X                  Y                   Z               Mass
    ------------   -----------------  -----------------  -----------------  -----------------
      Gh(C)           2.081749700686    -0.416853417598     0.081291140655    12.000000000000
      Gh(O)           1.251638700686    -1.104993417598    -0.487699859345    15.994914619570
      Gh(N)           1.974353700686     0.922044582402     0.272053140655    14.003074004430
      Gh(H)           2.692013700686     1.432517582402     0.752278140655     1.007825032230
      Gh(H)           1.158019700686     1.406071582402    -0.063381859345     1.007825032230
      Gh(H)           3.010550700686    -0.831052417598     0.500223140655     1.007825032230
         C           -1.461118299314     1.256626582402    -0.569816859345    12.000000000000
         C           -1.720141299314     0.318101582402     0.602903140655    12.000000000000
         C           -2.229726299314    -1.037501417598     0.131001140655    12.000000000000
         H           -0.743813299314     0.809592582402    -1.260283859345     1.007825032230
         H           -2.380278299314     1.443289582402    -1.126825859345     1.007825032230
         H           -1.079677299314     2.225934582402    -0.240627859345     1.007825032230
         H           -2.442505299314     0.773808582402     1.283732140655     1.007825032230
         H           -0.798460299314     0.175627582402     1.170783140655     1.007825032230
         H           -2.432197299314    -1.702776417598     0.969979140655     1.007825032230
         H           -3.153070299314    -0.925685417598    -0.439689859345     1.007825032230
         H           -1.486713299314    -1.514755417598    -0.507717859345     1.007825032230

  Charge       = 0
  Multiplicity = 1
  Basis Set: JUN-CC-PVTZ
    Blend: JUN-CC-PVTZ
  Basis Set: (JUN-CC-PVTZ AUX)
    Blend: JUN-CC-PVTZ-JKFIT

    Orbital Energies [Eh]
    ---------------------

    Doubly Occupied:

       1A    -11.215430     2A    -11.208081     3A    -11.207662
       4A     -1.054442     5A     -0.924212     6A     -0.799445
       7A     -0.625750     8A     -0.598346     9A     -0.548534
      10A     -0.530522    11A     -0.475401    12A     -0.474219
      13A     -0.468534

  @DF-RHF Final Energy:  -118.30791181503446

   => Energetics <=

    Nuclear Repulsion Energy =             82.8714663810772976
    One-Electron Energy =                -322.0975949558101092
    Two-Electron Energy =                 120.9182167596983390
    Total Energy =                       -118.3079118150344584

  Dipole Moment: [D]
     X:     0.0073      Y:     0.0166      Z:     0.0814     Total:     0.0834

    SAPT Results
  --------------------------------------------------------------------------------------------------------
    Electrostatics                 -2.94685053 [mEh]      -1.84917663 [kcal/mol]      -7.73695501 [kJ/mol]
      Elst10,r                     -2.94685053 [mEh]      -1.84917663 [kcal/mol]      -7.73695501 [kJ/mol]

    Exchange                        5.87267591 [mEh]       3.68515977 [kcal/mol]      15.41870849 [kJ/mol]
      Exch10                        5.87267591 [mEh]       3.68515977 [kcal/mol]      15.41870849 [kJ/mol]
      Exch10(S^2)                   5.85943540 [mEh]       3.67685122 [kcal/mol]      15.38394552 [kJ/mol]

    Induction                      -1.65116102 [mEh]      -1.03611918 [kcal/mol]      -4.33512265 [kJ/mol]
      Ind20,r                      -2.34464314 [mEh]      -1.47128579 [kcal/mol]      -6.15585973 [kJ/mol]
      Exch-Ind20,r                  1.16645805 [mEh]       0.73196347 [kcal/mol]       3.06253518 [kJ/mol]
      delta HF,r (2)               -0.47297592 [mEh]      -0.29679687 [kcal/mol]      -1.24179810 [kJ/mol]

    Dispersion                     -5.78953467 [mEh]      -3.63298785 [kcal/mol]     -15.20042117 [kJ/mol]
      Disp20                       -6.40822327 [mEh]      -4.02122081 [kcal/mol]     -16.82478789 [kJ/mol]
      Exch-Disp20                   0.61868861 [mEh]       0.38823296 [kcal/mol]       1.62436672 [kJ/mol]
      Disp20 (SS)                  -3.20411164 [mEh]      -2.01061041 [kcal/mol]      -8.41239394 [kJ/mol]
      Disp20 (OS)                  -3.20411164 [mEh]      -2.01061041 [kcal/mol]      -8.41239394 [kJ/mol]
      Exch-Disp20 (SS)              0.39845589 [mEh]       0.25003485 [kcal/mol]       1.04614580 [kJ/mol]
      Exch-Disp20 (OS)              0.22023271 [mEh]       0.13819812 [kcal/mol]       0.57822091 [kJ/mol]

  Total HF                          1.27466436 [mEh]       0.79986396 [kcal/mol]       3.34663083 [kJ/mol]
  Total SAPT0                      -4.51487030 [mEh]      -2.83312389 [kcal/mol]     -11.85379034 [kJ/mol]

  Special recipe for scaled SAPT0 (see Manual):
    Electrostatics sSAPT0          -2.94685053 [mEh]      -1.84917663 [kcal/mol]      -7.73695501 [kJ/mol]
    Exchange sSAPT0                 5.87267591 [mEh]       3.68515977 [kcal/mol]      15.41870849 [kJ/mol]
    Induction sSAPT0               -1.64323563 [mEh]      -1.03114592 [kcal/mol]      -4.31431455 [kJ/mol]
    Dispersion sSAPT0              -5.78533105 [mEh]      -3.63035004 [kcal/mol]     -15.18938457 [kJ/mol]
  Total sSAPT0                     -4.50274129 [mEh]      -2.82551282 [kcal/mol]     -11.82194563 [kJ/mol]
  --------------------------------------------------------------------------------------------------------

*** Psi4 exiting successfully. Buy a developer a beer!
