                               Psi4 1.3.2 release

  ==> Input File <==

--------------------------------------------------------------------------
# Any line starting with the # character is a comment line
#! Sample  computation

memory 22 gb

molecule Dimer {
0 1
 C -1.466382    0.098761   -0.000097
 O -0.806159    1.130333    0.001474
 O -0.945048   -1.121115   -0.001358
 H  0.052030   -1.072439   -0.000094
 C -2.965813    0.074805   -0.000381
 H -3.351228    1.087854   -0.002637
 H -3.317716   -0.466136   -0.876633
 H -3.317703   -0.461789    0.878595

 --
0 1
 C  2.477962   -0.190823   -0.000701
 O  1.736248   -1.176132    0.002014
 N  2.060413    1.080183   -0.000596
 H  2.730765    1.826849   -0.003381
 H  1.058403    1.273004    0.001835
 H  3.567638   -0.309773   -0.003472

units angstrom

no_reorient
symmetry c1
}

set globals{
  basis jun-cc-pvtz
}

energy('sapt0')

--------------------------------------------------------------------------

  //              Dimer HF             //
    Molecular point group: c1
  Charge       = 0
  Multiplicity = 1
  Basis Set: JUN-CC-PVTZ
    Blend: JUN-CC-PVTZ
  Basis Set: (JUN-CC-PVTZ AUX)
    Blend: JUN-CC-PVTZ-JKFIT
  @DF-RHF Final Energy:  -396.92634061469187
    Total Energy =                       -396.9263406146918669
  //            Monomer A HF           //
    Molecular point group: c1
  Multiplicity = 1
  Basis Set: JUN-CC-PVTZ
    Blend: JUN-CC-PVTZ
  Basis Set: (JUN-CC-PVTZ AUX)
    Blend: JUN-CC-PVTZ-JKFIT
  @DF-RHF Final Energy:  -227.90146808081417
    Total Energy =                       -227.9014680808141691
  //            Monomer B HF           //
    Molecular point group: c1

    Geometry (in Angstrom), charge = 0, multiplicity = 1:

       Center              X                  Y                   Z               Mass
    ------------   -----------------  -----------------  -----------------  -----------------
      Gh(C)          -1.490791806169     0.116407453793    -0.000151673561    12.000000000000
      Gh(O)          -0.830568806169     1.147979453793     0.001419326439    15.994914619570
      Gh(O)          -0.969457806169    -1.103468546207    -0.001412673561    15.994914619570
      Gh(H)           0.027620193831    -1.054792546207    -0.000148673561     1.007825032230
      Gh(C)          -2.990222806169     0.092451453793    -0.000435673561    12.000000000000
      Gh(H)          -3.375637806169     1.105500453793    -0.002691673561     1.007825032230
      Gh(H)          -3.342125806169    -0.448489546207    -0.876687673561     1.007825032230
      Gh(H)          -3.342112806169    -0.444142546207     0.878540326439     1.007825032230
         C            2.453552193831    -0.173176546207    -0.000755673561    12.000000000000
         O            1.711838193831    -1.158485546207     0.001959326439    15.994914619570
         N            2.036003193831     1.097829453793    -0.000650673561    14.003074004430
         H            2.706355193831     1.844495453793    -0.003435673561     1.007825032230
         H            1.033993193831     1.290650453793     0.001780326439     1.007825032230
         H            3.543228193831    -0.292126546207    -0.003526673561     1.007825032230

  Charge       = 0
  Multiplicity = 1
  Basis Set: JUN-CC-PVTZ
    Blend: JUN-CC-PVTZ
  Basis Set: (JUN-CC-PVTZ AUX)
    Blend: JUN-CC-PVTZ-JKFIT

    Orbital Energies [Eh]
    ---------------------

    Doubly Occupied:

       1A    -20.525743     2A    -15.603020     3A    -11.356339
       4A     -1.373800     5A     -1.227866     6A     -0.854920
       7A     -0.758725     8A     -0.677161     9A     -0.600997
      10A     -0.571350    11A     -0.434585    12A     -0.421048

  @DF-RHF Final Energy:  -169.00206430796180

   => Energetics <=

    Nuclear Repulsion Energy =             71.1557271538242730
    One-Electron Energy =                -371.5044717848612663
    Two-Electron Energy =                 131.3466803230751907
    Total Energy =                       -169.0020643079618026

  Dipole Moment: [D]
     X:     1.6625      Y:     4.1869      Z:    -0.0085     Total:     4.5049

    SAPT Results
  --------------------------------------------------------------------------------------------------------
    Electrostatics                -46.64491200 [mEh]     -29.27012418 [kcal/mol]    -122.46619958 [kJ/mol]
      Elst10,r                    -46.64491200 [mEh]     -29.27012418 [kcal/mol]    -122.46619958 [kJ/mol]

    Exchange                       44.51743831 [mEh]      27.93511429 [kcal/mol]     116.88051817 [kJ/mol]
      Exch10                       44.51743831 [mEh]      27.93511429 [kcal/mol]     116.88051817 [kJ/mol]
      Exch10(S^2)                  43.85949819 [mEh]      27.52225063 [kcal/mol]     115.15309663 [kJ/mol]

    Induction                     -20.68075222 [mEh]     -12.97736795 [kcal/mol]     -54.29730748 [kJ/mol]
      Ind20,r                     -24.71121317 [mEh]     -15.50652037 [kcal/mol]     -64.87928125 [kJ/mol]
      Exch-Ind20,r                 12.87069644 [mEh]       8.07648395 [kcal/mol]      33.79200884 [kJ/mol]
      delta HF,r (2)               -8.84023549 [mEh]      -5.54733152 [kcal/mol]     -23.21003508 [kJ/mol]

    Dispersion                    -11.76987625 [mEh]      -7.38570885 [kcal/mol]     -30.90180585 [kJ/mol]
      Disp20                      -14.66470319 [mEh]      -9.20224018 [kcal/mol]     -38.50217292 [kJ/mol]
      Exch-Disp20                   2.89482693 [mEh]       1.81653133 [kcal/mol]       7.60036707 [kJ/mol]
      Disp20 (SS)                  -7.33235159 [mEh]      -4.60112009 [kcal/mol]     -19.25108646 [kJ/mol]
      Disp20 (OS)                  -7.33235159 [mEh]      -4.60112009 [kcal/mol]     -19.25108646 [kJ/mol]
      Exch-Disp20 (SS)              1.82114121 [mEh]       1.14278336 [kcal/mol]       4.78140559 [kJ/mol]
      Exch-Disp20 (OS)              1.07368572 [mEh]       0.67374796 [kcal/mol]       2.81896148 [kJ/mol]

  Total HF                        -22.80822592 [mEh]     -14.31237784 [kcal/mol]     -59.88298889 [kJ/mol]
  Total SAPT0                     -34.57810217 [mEh]     -21.69808670 [kcal/mol]     -90.78479474 [kJ/mol]

  Special recipe for scaled SAPT0 (see Manual):
    Electrostatics sSAPT0         -46.64491200 [mEh]     -29.27012418 [kcal/mol]    -122.46619958 [kJ/mol]
    Exchange sSAPT0                44.51743831 [mEh]      27.93511429 [kcal/mol]     116.88051817 [kJ/mol]
    Induction sSAPT0              -20.09279651 [mEh]     -12.60842017 [kcal/mol]     -52.75362998 [kJ/mol]
    Dispersion sSAPT0             -11.63763554 [mEh]      -7.30272656 [kcal/mol]     -30.55460791 [kJ/mol]
  Total sSAPT0                    -33.85790575 [mEh]     -21.24615662 [kcal/mol]     -88.89391930 [kJ/mol]
  --------------------------------------------------------------------------------------------------------

*** Psi4 exiting successfully. Buy a developer a beer!
