                               Psi4 1.3.2 release

  ==> Input File <==

--------------------------------------------------------------------------
# Any line starting with the # character is a comment line
#! Sample  computation

memory 22 gb

molecule Dimer {
0 1
 C 2.451044   -0.025720    0.041798
 O 1.957450    1.090073    0.153113
 O 1.752026   -1.135712   -0.147518
 H 0.772098   -0.929148   -0.186499
 C 3.927023   -0.286733    0.105526
 H 4.460355    0.643944    0.261577
 H 4.135561   -0.982636    0.915820
 H 4.250360   -0.757095   -0.821066

 --
0 1
 C  -3.008047    0.301264   -0.305989
 C  -1.503436    0.282178   -0.175625
 O  -0.876509   -0.782550   -0.280580
 N  -0.891989    1.457102    0.042701
 H   0.126213    1.479261    0.102066
 H  -1.427263    2.301496    0.122340
 C  -3.647898   -0.839776    0.475860
 H  -4.724476   -0.855842    0.316518
 H  -3.229908   -1.790728    0.155092
 H  -3.460933   -0.730089    1.543339
 H  -3.403550    1.266453    0.012023
 H  -3.230386    0.192905   -1.369660

units angstrom

no_reorient
symmetry c1
}

set globals{
  basis jun-cc-pvtz
}

energy('sapt0')

--------------------------------------------------------------------------

  //              Dimer HF             //
    Molecular point group: c1
  Charge       = 0
  Multiplicity = 1
  Basis Set: JUN-CC-PVTZ
    Blend: JUN-CC-PVTZ
  Basis Set: (JUN-CC-PVTZ AUX)
    Blend: JUN-CC-PVTZ-JKFIT
  @DF-RHF Final Energy:  -475.03270676306698
    Total Energy =                       -475.0327067630670399
  //            Monomer A HF           //
    Molecular point group: c1
  Multiplicity = 1
  Basis Set: JUN-CC-PVTZ
    Blend: JUN-CC-PVTZ
  Basis Set: (JUN-CC-PVTZ AUX)
    Blend: JUN-CC-PVTZ-JKFIT
  @DF-RHF Final Energy:  -227.90104345245240
    Total Energy =                       -227.9010434524523987
  //            Monomer B HF           //
    Molecular point group: c1

    Geometry (in Angstrom), charge = 0, multiplicity = 1:

       Center              X                  Y                   Z               Mass
    ------------   -----------------  -----------------  -----------------  -----------------
      Gh(C)           2.408436636221    -0.026989281387     0.049626717533    12.000000000000
      Gh(O)           1.914842636221     1.088803718613     0.160941717533    15.994914619570
      Gh(O)           1.709418636221    -1.136981281387    -0.139689282467    15.994914619570
      Gh(H)           0.729490636221    -0.930417281387    -0.178670282467     1.007825032230
      Gh(C)           3.884415636221    -0.288002281387     0.113354717533    12.000000000000
      Gh(H)           4.417747636221     0.642674718613     0.269405717533     1.007825032230
      Gh(H)           4.092953636221    -0.983905281387     0.923648717533     1.007825032230
      Gh(H)           4.207752636221    -0.758364281387    -0.813237282467     1.007825032230
         C           -3.050654363779     0.299994718613    -0.298160282467    12.000000000000
         C           -1.546043363779     0.280908718613    -0.167796282467    12.000000000000
         O           -0.919116363779    -0.783819281387    -0.272751282467    15.994914619570
         N           -0.934596363779     1.455832718613     0.050529717533    14.003074004430
         H            0.083605636221     1.477991718613     0.109894717533     1.007825032230
         H           -1.469870363779     2.300226718613     0.130168717533     1.007825032230
         C           -3.690505363779    -0.841045281387     0.483688717533    12.000000000000
         H           -4.767083363779    -0.857111281387     0.324346717533     1.007825032230
         H           -3.272515363779    -1.791997281387     0.162920717533     1.007825032230
         H           -3.503540363779    -0.731358281387     1.551167717533     1.007825032230
         H           -3.446157363779     1.265183718613     0.019851717533     1.007825032230
         H           -3.272993363779     0.191635718613    -1.361831282467     1.007825032230

  Charge       = 0
  Multiplicity = 1
  Basis Set: JUN-CC-PVTZ
    Blend: JUN-CC-PVTZ
  Basis Set: (JUN-CC-PVTZ AUX)
    Blend: JUN-CC-PVTZ-JKFIT

    Orbital Energies [Eh]
    ---------------------

    Doubly Occupied:

       1A    -20.509348     2A    -15.592463     3A    -11.348216
       4A    -11.240949     5A    -11.218032     6A     -1.365020
       7A     -1.217394     8A     -1.052796     9A     -0.893916
      10A     -0.789791    11A     -0.727206    12A     -0.672002
      13A     -0.628325    14A     -0.591716    15A     -0.564815
      16A     -0.523424    17A     -0.513089    18A     -0.496010
      19A     -0.417791    20A     -0.411894

  @DF-RHF Final Energy:  -247.10785383590809

   => Energetics <=

    Nuclear Repulsion Energy =            179.3013417144806851
    One-Electron Energy =                -691.2699959154938369
    Two-Electron Energy =                 264.8608003651050353
    Total Energy =                       -247.1078538359080881

  Dipole Moment: [D]
     X:    -1.6047      Y:     3.9154      Z:     0.4189     Total:     4.2521

    SAPT Results
  --------------------------------------------------------------------------------------------------------
    Electrostatics                -49.03818695 [mEh]     -30.77192689 [kcal/mol]    -128.74974211 [kJ/mol]
      Elst10,r                    -49.03818695 [mEh]     -30.77192689 [kcal/mol]    -128.74974211 [kJ/mol]

    Exchange                       47.37606066 [mEh]      29.72892689 [kcal/mol]     124.38583012 [kJ/mol]
      Exch10                       47.37606066 [mEh]      29.72892689 [kcal/mol]     124.38583012 [kJ/mol]
      Exch10(S^2)                  46.62714686 [mEh]      29.25897639 [kcal/mol]     122.41955721 [kJ/mol]

    Induction                     -22.14734841 [mEh]     -13.89767095 [kcal/mol]     -58.14785524 [kJ/mol]
      Ind20,r                     -26.35795631 [mEh]     -16.53986730 [kcal/mol]     -69.20280476 [kJ/mol]
      Exch-Ind20,r                 13.73819290 [mEh]       8.62084619 [kcal/mol]      36.06962048 [kJ/mol]
      delta HF,r (2)               -9.52758499 [mEh]      -5.97864985 [kcal/mol]     -25.01467096 [kJ/mol]

    Dispersion                    -12.41611696 [mEh]      -7.79123102 [kcal/mol]     -32.59851058 [kJ/mol]
      Disp20                      -15.51395017 [mEh]      -9.73515070 [kcal/mol]     -40.73187055 [kJ/mol]
      Exch-Disp20                   3.09783321 [mEh]       1.94391968 [kcal/mol]       8.13335996 [kJ/mol]
      Disp20 (SS)                  -7.75697508 [mEh]      -4.86757535 [kcal/mol]     -20.36593527 [kJ/mol]
      Disp20 (OS)                  -7.75697508 [mEh]      -4.86757535 [kcal/mol]     -20.36593527 [kJ/mol]
      Exch-Disp20 (SS)              1.94712341 [mEh]       1.22183839 [kcal/mol]       5.11217182 [kJ/mol]
      Exch-Disp20 (OS)              1.15070979 [mEh]       0.72208130 [kcal/mol]       3.02118814 [kJ/mol]

  Total HF                        -23.80947471 [mEh]     -14.94067094 [kcal/mol]     -62.51176723 [kJ/mol]
  Total SAPT0                     -36.22559167 [mEh]     -22.73190196 [kcal/mol]     -95.11027781 [kJ/mol]

  Special recipe for scaled SAPT0 (see Manual):
    Electrostatics sSAPT0         -49.03818695 [mEh]     -30.77192689 [kcal/mol]    -128.74974211 [kJ/mol]
    Exchange sSAPT0                47.37606066 [mEh]      29.72892689 [kcal/mol]     124.38583012 [kJ/mol]
    Induction sSAPT0              -21.47468049 [mEh]     -13.47556546 [kcal/mol]     -56.38176587 [kJ/mol]
    Dispersion sSAPT0             -12.26443667 [mEh]      -7.69605020 [kcal/mol]     -32.20027405 [kJ/mol]
  Total sSAPT0                    -35.40124346 [mEh]     -22.21461566 [kcal/mol]     -92.94595191 [kJ/mol]
  --------------------------------------------------------------------------------------------------------

*** Psi4 exiting successfully. Buy a developer a beer!
