                               Psi4 1.3.2 release

  ==> Input File <==

--------------------------------------------------------------------------
# Any line starting with the # character is a comment line
#! Sample  computation

memory 22 gb

molecule Dimer {
0 1
 C 1.991115    0.068346   -0.000254
 O 1.385903    1.133815    0.000159
 O 1.407942   -1.121443   -0.000020
 H 0.410684   -1.022004    0.000328
 C 3.487865   -0.031277   -0.000027
 H 3.924138    0.960947   -0.001259
 H 3.812212   -0.585874    0.878357
 H 3.812461   -0.588353   -0.876725

 --
0 1
 C  -3.474141   -0.206034   -0.000028
 C  -1.977158   -0.051682   -0.000027
 O  -1.246585   -1.052913    0.000073
 N  -1.486353    1.197554   -0.000054
 H  -3.760829   -0.780853   -0.877940
 H  -3.760982   -0.779209    0.878921
 H  -4.000507    0.745226   -0.000931
 H  -0.474357    1.326961    0.000080
 H  -2.102522    1.988490   -0.000131

units angstrom

no_reorient
symmetry c1
}

set globals{
  basis jun-cc-pvtz
}

energy('sapt0')

--------------------------------------------------------------------------

  //              Dimer HF             //
    Molecular point group: c1
  Charge       = 0
  Multiplicity = 1
  Basis Set: JUN-CC-PVTZ
    Blend: JUN-CC-PVTZ
  Basis Set: (JUN-CC-PVTZ AUX)
    Blend: JUN-CC-PVTZ-JKFIT
  @DF-RHF Final Energy:  -435.98523452016275
    Total Energy =                       -435.9852345201627486
  //            Monomer A HF           //
    Molecular point group: c1
  Multiplicity = 1
  Basis Set: JUN-CC-PVTZ
    Blend: JUN-CC-PVTZ
  Basis Set: (JUN-CC-PVTZ AUX)
    Blend: JUN-CC-PVTZ-JKFIT
  @DF-RHF Final Energy:  -227.90101330822495
    Total Energy =                       -227.9010133082249467
  //            Monomer B HF           //
    Molecular point group: c1

    Geometry (in Angstrom), charge = 0, multiplicity = 1:

       Center              X                  Y                   Z               Mass
    ------------   -----------------  -----------------  -----------------  -----------------
      Gh(C)           1.973388320641     0.078815320544    -0.000248189679    12.000000000000
      Gh(O)           1.368176320641     1.144284320544     0.000164810321    15.994914619570
      Gh(O)           1.390215320641    -1.110973679456    -0.000014189679    15.994914619570
      Gh(H)           0.392957320641    -1.011534679456     0.000333810321     1.007825032230
      Gh(C)           3.470138320641    -0.020807679456    -0.000021189679    12.000000000000
      Gh(H)           3.906411320641     0.971416320544    -0.001253189679     1.007825032230
      Gh(H)           3.794485320641    -0.575404679456     0.878362810321     1.007825032230
      Gh(H)           3.794734320641    -0.577883679456    -0.876719189679     1.007825032230
         C           -3.491867679359    -0.195564679456    -0.000022189679    12.000000000000
         C           -1.994884679359    -0.041212679456    -0.000021189679    12.000000000000
         O           -1.264311679359    -1.042443679456     0.000078810321    15.994914619570
         N           -1.504079679359     1.208023320544    -0.000048189679    14.003074004430
         H           -3.778555679359    -0.770383679456    -0.877934189679     1.007825032230
         H           -3.778708679359    -0.768739679456     0.878926810321     1.007825032230
         H           -4.018233679359     0.755695320544    -0.000925189679     1.007825032230
         H           -0.492083679359     1.337430320544     0.000085810321     1.007825032230
         H           -2.120248679359     1.998959320544    -0.000125189679     1.007825032230

  Charge       = 0
  Multiplicity = 1
  Basis Set: JUN-CC-PVTZ
    Blend: JUN-CC-PVTZ
  Basis Set: (JUN-CC-PVTZ AUX)
    Blend: JUN-CC-PVTZ-JKFIT

    Orbital Energies [Eh]
    ---------------------

    Doubly Occupied:

       1A    -20.509857     2A    -15.594260     3A    -11.352577
       4A    -11.238005     5A     -1.365777     6A     -1.219031
       7A     -1.007247     8A     -0.804822     9A     -0.733143
      10A     -0.662465    11A     -0.615896    12A     -0.576811
      13A     -0.565351    14A     -0.524110    15A     -0.420707
      16A     -0.412811

  @DF-RHF Final Energy:  -208.06023461065479

   => Energetics <=

    Nuclear Repulsion Energy =            121.8707916589405755
    One-Electron Energy =                -524.6563152152127714
    Two-Electron Energy =                 194.7252889456174216
    Total Energy =                       -208.0602346106547884

  Dipole Moment: [D]
     X:    -2.0449      Y:     3.9572      Z:    -0.0001     Total:     4.4543

    SAPT Results
  --------------------------------------------------------------------------------------------------------
    Electrostatics                -49.21774390 [mEh]     -30.88460057 [kcal/mol]    -129.22116879 [kJ/mol]
      Elst10,r                    -49.21774390 [mEh]     -30.88460057 [kcal/mol]    -129.22116879 [kJ/mol]

    Exchange                       47.47173704 [mEh]      29.78896473 [kcal/mol]     124.63702844 [kJ/mol]
      Exch10                       47.47173704 [mEh]      29.78896473 [kcal/mol]     124.63702844 [kJ/mol]
      Exch10(S^2)                  46.72097216 [mEh]      29.31785266 [kcal/mol]     122.66589551 [kJ/mol]

    Induction                     -22.24059443 [mEh]     -13.95618371 [kcal/mol]     -58.39267264 [kJ/mol]
      Ind20,r                     -26.42393214 [mEh]     -16.58126775 [kcal/mol]     -69.37602426 [kJ/mol]
      Exch-Ind20,r                 13.74534600 [mEh]       8.62533484 [kcal/mol]      36.08840096 [kJ/mol]
      delta HF,r (2)               -9.56200830 [mEh]      -6.00025080 [kcal/mol]     -25.10504934 [kJ/mol]

    Dispersion                    -12.34306277 [mEh]      -7.74538883 [kcal/mol]     -32.40670684 [kJ/mol]
      Disp20                      -15.43342224 [mEh]      -9.68461867 [kcal/mol]     -40.52044450 [kJ/mol]
      Exch-Disp20                   3.09035947 [mEh]       1.93922984 [kcal/mol]       8.11373766 [kJ/mol]
      Disp20 (SS)                  -7.71671112 [mEh]      -4.84230933 [kcal/mol]     -20.26022225 [kJ/mol]
      Disp20 (OS)                  -7.71671112 [mEh]      -4.84230933 [kcal/mol]     -20.26022225 [kJ/mol]
      Exch-Disp20 (SS)              1.94268823 [mEh]       1.21905527 [kcal/mol]       5.10052725 [kJ/mol]
      Exch-Disp20 (OS)              1.14767123 [mEh]       0.72017457 [kcal/mol]       3.01321041 [kJ/mol]

  Total HF                        -23.98660128 [mEh]     -15.05181955 [kcal/mol]     -62.97681299 [kJ/mol]
  Total SAPT0                     -36.32966406 [mEh]     -22.79720837 [kcal/mol]     -95.38351984 [kJ/mol]

  Special recipe for scaled SAPT0 (see Manual):
    Electrostatics sSAPT0         -49.21774390 [mEh]     -30.88460057 [kcal/mol]    -129.22116879 [kJ/mol]
    Exchange sSAPT0                47.47173704 [mEh]      29.78896473 [kcal/mol]     124.63702844 [kJ/mol]
    Induction sSAPT0              -21.56726275 [mEh]     -13.53366170 [kcal/mol]     -56.62484054 [kJ/mol]
    Dispersion sSAPT0             -12.19167794 [mEh]      -7.65039341 [kcal/mol]     -32.00924601 [kJ/mol]
  Total sSAPT0                    -35.50494754 [mEh]     -22.27969094 [kcal/mol]     -93.21822691 [kJ/mol]
  --------------------------------------------------------------------------------------------------------

*** Psi4 exiting successfully. Buy a developer a beer!
