                               Psi4 1.3.2 release

  ==> Input File <==

--------------------------------------------------------------------------
# Any line starting with the # character is a comment line
#! Sample  computation

memory 22 gb

molecule Dimer {
0 1
  C    1.958822371   0.063448473   0.000000000
  O    1.374415430   1.134060225   0.000000000
  O    1.357670707  -1.110782181   0.000000000
  H    0.356229651  -1.021533495   0.000000000
  C    3.458528481  -0.051128874   0.000000000
  H    3.907842909   0.935707469   0.000000000
  H    3.782529378  -0.610419823  -0.876633742
  H    3.782529378  -0.610419823   0.876633742

 --
0 1
  H   -2.148027033   2.014024425   0.000000000
  H   -0.533952319   1.324702852   0.000000000
  H   -4.082057063   0.793494877   0.000000000
  H   -3.862258941  -0.733787696   0.877448542
  H   -3.862258941  -0.733787696  -0.877448542
  O   -1.351280720  -1.037330421   0.000000000
  C   -2.061646288  -0.027415327   0.000000000
  N   -1.549851249   1.210085882   0.000000000
  C   -3.564344714  -0.162939244   0.000000000

units angstrom

no_reorient
symmetry c1
}

set globals{
  basis jun-cc-pVTZ
  scf_type DF
  freeze_core True
}

energy('sapt0')

--------------------------------------------------------------------------

  //              Dimer HF             //
    Molecular point group: c1
  Charge       = 0
  Multiplicity = 1
  Basis Set: JUN-CC-PVTZ
    Blend: JUN-CC-PVTZ
  Basis Set: (JUN-CC-PVTZ AUX)
    Blend: JUN-CC-PVTZ-JKFIT
  @DF-RHF Final Energy:  -435.98642662816212
    Total Energy =                       -435.9864266281621212
  //            Monomer A HF           //
    Molecular point group: c1
  Multiplicity = 1
  Basis Set: JUN-CC-PVTZ
    Blend: JUN-CC-PVTZ
  Basis Set: (JUN-CC-PVTZ AUX)
    Blend: JUN-CC-PVTZ-JKFIT
  @DF-RHF Final Energy:  -227.90108272768106
    Total Energy =                       -227.9010827276810573
  //            Monomer B HF           //
    Molecular point group: c1

    Geometry (in Angstrom), charge = 0, multiplicity = 1:

       Center              X                  Y                   Z               Mass
    ------------   -----------------  -----------------  -----------------  -----------------
      Gh(C)           1.999144919938     0.063806040520     0.000000000000    12.000000000000
      Gh(O)           1.414737978938     1.134417792520     0.000000000000    15.994914619570
      Gh(O)           1.397993255938    -1.110424613480     0.000000000000    15.994914619570
      Gh(H)           0.396552199938    -1.021175927480     0.000000000000     1.007825032230
      Gh(C)           3.498851029938    -0.050771306480     0.000000000000    12.000000000000
      Gh(H)           3.948165457938     0.936065036520     0.000000000000     1.007825032230
      Gh(H)           3.822851926938    -0.610062255480    -0.876633742000     1.007825032230
      Gh(H)           3.822851926938    -0.610062255480     0.876633742000     1.007825032230
         H           -2.107704484062     2.014381992520     0.000000000000     1.007825032230
         H           -0.493629770062     1.325060419520     0.000000000000     1.007825032230
         H           -4.041734514062     0.793852444520     0.000000000000     1.007825032230
         H           -3.821936392062    -0.733430128480     0.877448542000     1.007825032230
         H           -3.821936392062    -0.733430128480    -0.877448542000     1.007825032230
         O           -1.310958171062    -1.036972853480     0.000000000000    15.994914619570
         C           -2.021323739062    -0.027057759480     0.000000000000    12.000000000000
         N           -1.509528700062     1.210443449520     0.000000000000    14.003074004430
         C           -3.524022165062    -0.162581676480     0.000000000000    12.000000000000

  Charge       = 0
  Multiplicity = 1
  Basis Set: JUN-CC-PVTZ
    Blend: JUN-CC-PVTZ
  Basis Set: (JUN-CC-PVTZ AUX)
    Blend: JUN-CC-PVTZ-JKFIT

    Orbital Energies [Eh]
    ---------------------

    Doubly Occupied:

       1A    -20.509430     2A    -15.593976     3A    -11.351671
       4A    -11.237818     5A     -1.368515     6A     -1.219504
       7A     -1.005572     8A     -0.805568     9A     -0.732539
      10A     -0.662642    11A     -0.615370    12A     -0.577217
      13A     -0.564877    14A     -0.524744    15A     -0.420473
      16A     -0.413125

  @DF-RHF Final Energy:  -208.06066216882797

   => Energetics <=

    Nuclear Repulsion Energy =            121.9556116069276470
    One-Electron Energy =                -524.8264645564579496
    Two-Electron Energy =                 194.8101907807023565
    Total Energy =                       -208.0606621688279745

  Dipole Moment: [D]
     X:    -1.9473      Y:     3.9764      Z:     0.0000     Total:     4.4276

    SAPT Results
  --------------------------------------------------------------------------------------------------------
    Electrostatics                -45.29618552 [mEh]     -28.42378554 [kcal/mol]    -118.92511869 [kJ/mol]
      Elst10,r                    -45.29618552 [mEh]     -28.42378554 [kcal/mol]    -118.92511869 [kJ/mol]

    Exchange                       40.03972010 [mEh]      25.12530369 [kcal/mol]     105.12427065 [kJ/mol]
      Exch10                       40.03972010 [mEh]      25.12530369 [kcal/mol]     105.12427065 [kJ/mol]
      Exch10(S^2)                  39.48935987 [mEh]      24.77994743 [kcal/mol]     103.67930004 [kJ/mol]

    Induction                     -19.42526624 [mEh]     -12.18953860 [kcal/mol]     -51.00102949 [kJ/mol]
      Ind20,r                     -22.64853761 [mEh]     -14.21217192 [kcal/mol]     -59.46372732 [kJ/mol]
      Exch-Ind20,r                 11.42702515 [mEh]       7.17056654 [kcal/mol]      30.00165039 [kJ/mol]
      delta HF,r (2)               -8.20375377 [mEh]      -5.14793321 [kcal/mol]     -21.53895256 [kJ/mol]

    Dispersion                    -11.12588844 [mEh]      -6.98160040 [kcal/mol]     -29.21101608 [kJ/mol]
      Disp20                      -13.78562547 [mEh]      -8.65061059 [kcal/mol]     -36.19415470 [kJ/mol]
      Exch-Disp20                   2.65973703 [mEh]       1.66901018 [kcal/mol]       6.98313861 [kJ/mol]
      Disp20 (SS)                  -6.89281274 [mEh]      -4.32530529 [kcal/mol]     -18.09707735 [kJ/mol]
      Disp20 (OS)                  -6.89281274 [mEh]      -4.32530529 [kcal/mol]     -18.09707735 [kJ/mol]
      Exch-Disp20 (SS)              1.67683258 [mEh]       1.05222833 [kcal/mol]       4.40252333 [kJ/mol]
      Exch-Disp20 (OS)              0.98290445 [mEh]       0.61678186 [kcal/mol]       2.58061528 [kJ/mol]

  Total HF                        -24.68173165 [mEh]     -15.48802044 [kcal/mol]     -64.80187753 [kJ/mol]
  Total SAPT0                     -35.80762010 [mEh]     -22.46962084 [kcal/mol]     -94.01289361 [kJ/mol]

  Special recipe for scaled SAPT0 (see Manual):
    Electrostatics sSAPT0         -45.29618552 [mEh]     -28.42378554 [kcal/mol]    -118.92511869 [kJ/mol]
    Exchange sSAPT0                40.03972010 [mEh]      25.12530369 [kcal/mol]     105.12427065 [kJ/mol]
    Induction sSAPT0              -18.94080385 [mEh]     -11.88553386 [kcal/mol]     -49.72907367 [kJ/mol]
    Dispersion sSAPT0             -11.01312571 [mEh]      -6.91084072 [kcal/mol]     -28.91495758 [kJ/mol]
  Total sSAPT0                    -35.21039498 [mEh]     -22.09485643 [kcal/mol]     -92.44487929 [kJ/mol]
  --------------------------------------------------------------------------------------------------------

*** Psi4 exiting successfully. Buy a developer a beer!
