                               Psi4 1.3.2 release

  ==> Input File <==

--------------------------------------------------------------------------
# Any line starting with the # character is a comment line
#! Sample  computation

memory 22 gb

molecule Dimer {
0 1
 C -2.973503    0.229070   -0.000385
 O -2.529893   -1.008965   -0.000708
 O -2.297349    1.245760    0.000473
 H -4.066626    0.256204   -0.000997
 H -1.522180   -1.024514    0.000003

 --
0 1
 C   2.404068   -0.643379   -0.000055
 C   0.931847   -0.301735    0.000455
 O   0.093995   -1.217638    0.000835
 N   0.581435    0.992149    0.000212
 H  -0.409312    1.231914    0.000518
 H   1.278289    1.713152    0.000024
 C   3.381587    0.522900   -0.000607
 H   3.262540    1.147068    0.885308
 H   4.405332    0.153646   -0.000990
 H   3.261783    1.146862   -0.886563
 H   2.561385   -1.281754    0.870206
 H   2.560731   -1.282023   -0.870236

units angstrom

no_reorient
symmetry c1
}

set globals{
  basis jun-cc-pvtz
}

energy('sapt0')

--------------------------------------------------------------------------

  //              Dimer HF             //
    Molecular point group: c1
  Charge       = 0
  Multiplicity = 1
  Basis Set: JUN-CC-PVTZ
    Blend: JUN-CC-PVTZ
  Basis Set: (JUN-CC-PVTZ AUX)
    Blend: JUN-CC-PVTZ-JKFIT
  @DF-RHF Final Energy:  -435.97041712263439
    Total Energy =                       -435.9704171226344442
  //            Monomer A HF           //
    Molecular point group: c1
  Multiplicity = 1
  Basis Set: JUN-CC-PVTZ
    Blend: JUN-CC-PVTZ
  Basis Set: (JUN-CC-PVTZ AUX)
    Blend: JUN-CC-PVTZ-JKFIT
  @DF-RHF Final Energy:  -188.83909169349403
    Total Energy =                       -188.8390916934940265
  //            Monomer B HF           //
    Molecular point group: c1

    Geometry (in Angstrom), charge = 0, multiplicity = 1:

       Center              X                  Y                   Z               Mass
    ------------   -----------------  -----------------  -----------------  -----------------
      Gh(C)          -2.879285235685     0.246174344954    -0.000407789364    12.000000000000
      Gh(O)          -2.435675235685    -0.991860655046    -0.000730789364    15.994914619570
      Gh(O)          -2.203131235685     1.262864344954     0.000450210636    15.994914619570
      Gh(H)          -3.972408235685     0.273308344954    -0.001019789364     1.007825032230
      Gh(H)          -1.427962235685    -1.007409655046    -0.000019789364     1.007825032230
         C            2.498285764315    -0.626274655046    -0.000077789364    12.000000000000
         C            1.026064764315    -0.284630655046     0.000432210636    12.000000000000
         O            0.188212764315    -1.200533655046     0.000812210636    15.994914619570
         N            0.675652764315     1.009253344954     0.000189210636    14.003074004430
         H           -0.315094235685     1.249018344954     0.000495210636     1.007825032230
         H            1.372506764315     1.730256344954     0.000001210636     1.007825032230
         C            3.475804764315     0.540004344954    -0.000629789364    12.000000000000
         H            3.356757764315     1.164172344954     0.885285210636     1.007825032230
         H            4.499549764315     0.170750344954    -0.001012789364     1.007825032230
         H            3.356000764315     1.163966344954    -0.886585789364     1.007825032230
         H            2.655602764315    -1.264649655046     0.870183210636     1.007825032230
         H            2.654948764315    -1.264918655046    -0.870258789364     1.007825032230

  Charge       = 0
  Multiplicity = 1
  Basis Set: JUN-CC-PVTZ
    Blend: JUN-CC-PVTZ
  Basis Set: (JUN-CC-PVTZ AUX)
    Blend: JUN-CC-PVTZ-JKFIT

    Orbital Energies [Eh]
    ---------------------

    Doubly Occupied:

       1A    -20.505629     2A    -15.591336     3A    -11.347874
       4A    -11.241084     5A    -11.236543     6A     -1.361811
       7A     -1.217599     8A     -1.059690     9A     -0.904146
      10A     -0.795894    11A     -0.738231    12A     -0.644880
      13A     -0.644832    14A     -0.594966    15A     -0.558648
      16A     -0.551413    17A     -0.525004    18A     -0.502839
      19A     -0.413648    20A     -0.408537

  @DF-RHF Final Energy:  -247.10578892213584

   => Energetics <=

    Nuclear Repulsion Energy =            179.3076078672054621
    One-Electron Energy =                -691.1375853837137129
    Two-Electron Energy =                 264.7241885943724355
    Total Energy =                       -247.1057889221358437

  Dipole Moment: [D]
     X:     2.7104      Y:     3.7003      Z:    -0.0012     Total:     4.5868

    SAPT Results
  --------------------------------------------------------------------------------------------------------
    Electrostatics                -51.08181936 [mEh]     -32.05432559 [kcal/mol]    -134.11529826 [kJ/mol]
      Elst10,r                    -51.08181936 [mEh]     -32.05432559 [kcal/mol]    -134.11529826 [kJ/mol]

    Exchange                       49.55723932 [mEh]      31.09763717 [kcal/mol]     130.11251391 [kJ/mol]
      Exch10                       49.55723932 [mEh]      31.09763717 [kcal/mol]     130.11251391 [kJ/mol]
      Exch10(S^2)                  48.71203233 [mEh]      30.56726178 [kcal/mol]     127.89342327 [kJ/mol]

    Induction                     -24.01192697 [mEh]     -15.06771165 [kcal/mol]     -63.04330556 [kJ/mol]
      Ind20,r                     -28.18518133 [mEh]     -17.68646831 [kcal/mol]     -74.00018339 [kJ/mol]
      Exch-Ind20,r                 14.52848265 [mEh]       9.11676050 [kcal/mol]      38.14452595 [kJ/mol]
      delta HF,r (2)              -10.35522829 [mEh]      -6.49800385 [kcal/mol]     -27.18764812 [kJ/mol]

    Dispersion                    -12.51501081 [mEh]      -7.85328785 [kcal/mol]     -32.85815636 [kJ/mol]
      Disp20                      -15.67437087 [mEh]      -9.83581622 [kcal/mol]     -41.15305505 [kJ/mol]
      Exch-Disp20                   3.15936006 [mEh]       1.98252837 [kcal/mol]       8.29489870 [kJ/mol]
      Disp20 (SS)                  -7.83718544 [mEh]      -4.91790811 [kcal/mol]     -20.57652753 [kJ/mol]
      Disp20 (OS)                  -7.83718544 [mEh]      -4.91790811 [kcal/mol]     -20.57652753 [kJ/mol]
      Exch-Disp20 (SS)              1.98864352 [mEh]       1.24789265 [kcal/mol]       5.22118284 [kJ/mol]
      Exch-Disp20 (OS)              1.17071654 [mEh]       0.73463572 [kcal/mol]       3.07371585 [kJ/mol]

  Total HF                        -25.53650700 [mEh]     -16.02440007 [kcal/mol]     -67.04608990 [kJ/mol]
  Total SAPT0                     -38.05151781 [mEh]     -23.87768792 [kcal/mol]     -99.90424626 [kJ/mol]

  Special recipe for scaled SAPT0 (see Manual):
    Electrostatics sSAPT0         -51.08181936 [mEh]     -32.05432559 [kcal/mol]    -134.11529826 [kJ/mol]
    Exchange sSAPT0                49.55723932 [mEh]      31.09763717 [kcal/mol]     130.11251391 [kJ/mol]
    Induction sSAPT0              -23.24247407 [mEh]     -14.58487267 [kcal/mol]     -61.02310726 [kJ/mol]
    Dispersion sSAPT0             -12.34768578 [mEh]      -7.74828981 [kcal/mol]     -32.41884456 [kJ/mol]
  Total sSAPT0                    -37.11473989 [mEh]     -23.28985090 [kcal/mol]     -97.44473617 [kJ/mol]
  --------------------------------------------------------------------------------------------------------

*** Psi4 exiting successfully. Buy a developer a beer!
