                               Psi4 1.3.2 release

  ==> Input File <==

--------------------------------------------------------------------------
# Any line starting with the # character is a comment line
#! Sample  computation

memory 22 gb

molecule Dimer {
0 1
 C -1.968225    0.150153   -0.000083
 O -1.490997   -1.077206   -0.000104
 O -1.319056    1.183300    0.000021
 H -3.061272    0.146047   -0.000164
 H -0.489103   -1.062965   -0.000001

 --
0 1
 C  1.942414   -0.228202   -0.000042
 O  1.171237   -1.191200    0.000000
 N  1.565323    1.054941    0.000140
 H  2.259116    1.779953    0.000315
 H  0.572051    1.283100    0.000134
 H  3.027347   -0.381576    0.000154

units angstrom

no_reorient
symmetry c1
}

set globals{
  basis jun-cc-pvtz
}

energy('sapt0')

--------------------------------------------------------------------------

  //              Dimer HF             //
    Molecular point group: c1
  Charge       = 0
  Multiplicity = 1
  Basis Set: JUN-CC-PVTZ
    Blend: JUN-CC-PVTZ
  Basis Set: (JUN-CC-PVTZ AUX)
    Blend: JUN-CC-PVTZ-JKFIT
  @DF-RHF Final Energy:  -357.86546842632032
    Total Energy =                       -357.8654684263203194
  //            Monomer A HF           //
    Molecular point group: c1
  Multiplicity = 1
  Basis Set: JUN-CC-PVTZ
    Blend: JUN-CC-PVTZ
  Basis Set: (JUN-CC-PVTZ AUX)
    Blend: JUN-CC-PVTZ-JKFIT
  @DF-RHF Final Energy:  -188.83978878270864
    Total Energy =                       -188.8397887827086379
  //            Monomer B HF           //
    Molecular point group: c1

    Geometry (in Angstrom), charge = 0, multiplicity = 1:

       Center              X                  Y                   Z               Mass
    ------------   -----------------  -----------------  -----------------  -----------------
      Gh(C)          -1.943211307904     0.169289995498    -0.000078323141    12.000000000000
      Gh(O)          -1.465983307904    -1.058069004502    -0.000099323141    15.994914619570
      Gh(O)          -1.294042307904     1.202436995498     0.000025676859    15.994914619570
      Gh(H)          -3.036258307904     0.165183995498    -0.000159323141     1.007825032230
      Gh(H)          -0.464089307904    -1.043828004502     0.000003676859     1.007825032230
         C            1.967427692096    -0.209065004502    -0.000037323141    12.000000000000
         O            1.196250692096    -1.172063004502     0.000004676859    15.994914619570
         N            1.590336692096     1.074077995498     0.000144676859    14.003074004430
         H            2.284129692096     1.799089995498     0.000319676859     1.007825032230
         H            0.597064692096     1.302236995498     0.000138676859     1.007825032230
         H            3.052360692096    -0.362439004502     0.000158676859     1.007825032230

  Charge       = 0
  Multiplicity = 1
  Basis Set: JUN-CC-PVTZ
    Blend: JUN-CC-PVTZ
  Basis Set: (JUN-CC-PVTZ AUX)
    Blend: JUN-CC-PVTZ-JKFIT

    Orbital Energies [Eh]
    ---------------------

    Doubly Occupied:

       1A    -20.525677     2A    -15.603098     3A    -11.356360
       4A     -1.373492     5A     -1.228249     6A     -0.855468
       7A     -0.758674     8A     -0.677613     9A     -0.600794
      10A     -0.571346    11A     -0.434510    12A     -0.421080

  @DF-RHF Final Energy:  -169.00206804913665

   => Energetics <=

    Nuclear Repulsion Energy =             71.1520494852126291
    One-Electron Energy =                -371.4955139661190060
    Two-Electron Energy =                 131.3413964317697378
    Total Energy =                       -169.0020680491366534

  Dipole Moment: [D]
     X:     1.7928      Y:     4.1441      Z:     0.0003     Total:     4.5152

    SAPT Results
  --------------------------------------------------------------------------------------------------------
    Electrostatics                -47.17838027 [mEh]     -29.60488058 [kcal/mol]    -123.86682035 [kJ/mol]
      Elst10,r                    -47.17838027 [mEh]     -29.60488058 [kcal/mol]    -123.86682035 [kJ/mol]

    Exchange                       45.09369557 [mEh]      28.29672118 [kcal/mol]     118.39348141 [kJ/mol]
      Exch10                       45.09369557 [mEh]      28.29672118 [kcal/mol]     118.39348141 [kJ/mol]
      Exch10(S^2)                  44.39873000 [mEh]      27.86062370 [kcal/mol]     116.56884956 [kJ/mol]

    Induction                     -21.52690977 [mEh]     -13.50833982 [kcal/mol]     -56.51889382 [kJ/mol]
      Ind20,r                     -25.47082422 [mEh]     -15.98318351 [kcal/mol]     -66.87363979 [kJ/mol]
      Exch-Ind20,r                 13.14809839 [mEh]       8.25055630 [kcal/mol]      34.52032757 [kJ/mol]
      delta HF,r (2)               -9.20418394 [mEh]      -5.77571262 [kcal/mol]     -24.16558160 [kJ/mol]

    Dispersion                    -11.66742157 [mEh]      -7.32141757 [kcal/mol]     -30.63281111 [kJ/mol]
      Disp20                      -14.53931975 [mEh]      -9.12356088 [kcal/mol]     -38.17297874 [kJ/mol]
      Exch-Disp20                   2.87189818 [mEh]       1.80214331 [kcal/mol]       7.54016762 [kJ/mol]
      Disp20 (SS)                  -7.26965987 [mEh]      -4.56178044 [kcal/mol]     -19.08648937 [kJ/mol]
      Disp20 (OS)                  -7.26965987 [mEh]      -4.56178044 [kcal/mol]     -19.08648937 [kJ/mol]
      Exch-Disp20 (SS)              1.80830330 [mEh]       1.13472745 [kcal/mol]       4.74769966 [kJ/mol]
      Exch-Disp20 (OS)              1.06359488 [mEh]       0.66741586 [kcal/mol]       2.79246796 [kJ/mol]

  Total HF                        -23.61159448 [mEh]     -14.81649922 [kcal/mol]     -61.99223275 [kJ/mol]
  Total SAPT0                     -35.27901605 [mEh]     -22.13791679 [kcal/mol]     -92.62504387 [kJ/mol]

  Special recipe for scaled SAPT0 (see Manual):
    Electrostatics sSAPT0         -47.17838027 [mEh]     -29.60488058 [kcal/mol]    -123.86682035 [kJ/mol]
    Exchange sSAPT0                45.09369557 [mEh]      28.29672118 [kcal/mol]     118.39348141 [kJ/mol]
    Induction sSAPT0              -20.89978040 [mEh]     -13.11481020 [kcal/mol]     -54.87236588 [kJ/mol]
    Dispersion sSAPT0             -11.53043965 [mEh]      -7.23546012 [kcal/mol]     -30.27316514 [kJ/mol]
  Total sSAPT0                    -34.51490476 [mEh]     -21.65842972 [kcal/mol]     -90.61886996 [kJ/mol]
  --------------------------------------------------------------------------------------------------------

*** Psi4 exiting successfully. Buy a developer a beer!
