                               Psi4 1.3.2 release

  ==> Input File <==

--------------------------------------------------------------------------
# Any line starting with the # character is a comment line
#! Sample  computation

memory 22 gb

molecule Dimer {
0 1
 C 2.495472    0.029361   -0.000052
 O 1.911754   -1.149744   -0.000310
 O 1.940718    1.116694    0.000246
 H 3.584298   -0.070334   -0.000143
 H 0.910673   -1.047886   -0.000143

 --
0 1
 C  -2.946880   -0.188240   -0.000137
 C  -1.449399   -0.043241    0.000069
 O  -0.725779   -1.049845    0.000422
 N  -0.951260    1.202999   -0.000176
 H  -3.467106    0.766317   -0.001010
 H  -3.236868   -0.761247   -0.878194
 H  -3.237256   -0.759819    0.878733
 H   0.059736    1.330667    0.000072
 H  -1.563358    1.997198   -0.000235

units angstrom

no_reorient
symmetry c1
}

set globals{
  basis jun-cc-pvtz
}

energy('sapt0')

--------------------------------------------------------------------------

  //              Dimer HF             //
    Molecular point group: c1
  Charge       = 0
  Multiplicity = 1
  Basis Set: JUN-CC-PVTZ
    Blend: JUN-CC-PVTZ
  Basis Set: (JUN-CC-PVTZ AUX)
    Blend: JUN-CC-PVTZ-JKFIT
  @DF-RHF Final Energy:  -396.92452027795986
    Total Energy =                       -396.9245202779598571
  //            Monomer A HF           //
    Molecular point group: c1
  Multiplicity = 1
  Basis Set: JUN-CC-PVTZ
    Blend: JUN-CC-PVTZ
  Basis Set: (JUN-CC-PVTZ AUX)
    Blend: JUN-CC-PVTZ-JKFIT
  @DF-RHF Final Energy:  -188.83930241202475
    Total Energy =                       -188.8393024120247503
  //            Monomer B HF           //
    Molecular point group: c1

    Geometry (in Angstrom), charge = 0, multiplicity = 1:

       Center              X                  Y                   Z               Mass
    ------------   -----------------  -----------------  -----------------  -----------------
      Gh(C)           2.430006409765     0.043015350987    -0.000060515016    12.000000000000
      Gh(O)           1.846288409765    -1.136089649013    -0.000318515016    15.994914619570
      Gh(O)           1.875252409765     1.130348350987     0.000237484984    15.994914619570
      Gh(H)           3.518832409765    -0.056679649013    -0.000151515016     1.007825032230
      Gh(H)           0.845207409765    -1.034231649013    -0.000151515016     1.007825032230
         C           -3.012345590235    -0.174585649013    -0.000145515016    12.000000000000
         C           -1.514864590235    -0.029586649013     0.000060484984    12.000000000000
         O           -0.791244590235    -1.036190649013     0.000413484984    15.994914619570
         N           -1.016725590235     1.216653350987    -0.000184515016    14.003074004430
         H           -3.532571590235     0.779971350987    -0.001018515016     1.007825032230
         H           -3.302333590235    -0.747592649013    -0.878202515016     1.007825032230
         H           -3.302721590235    -0.746164649013     0.878724484984     1.007825032230
         H           -0.005729590235     1.344321350987     0.000063484984     1.007825032230
         H           -1.628823590235     2.010852350987    -0.000243515016     1.007825032230

  Charge       = 0
  Multiplicity = 1
  Basis Set: JUN-CC-PVTZ
    Blend: JUN-CC-PVTZ
  Basis Set: (JUN-CC-PVTZ AUX)
    Blend: JUN-CC-PVTZ-JKFIT

    Orbital Energies [Eh]
    ---------------------

    Doubly Occupied:

       1A    -20.509838     2A    -15.594281     3A    -11.352637
       4A    -11.237956     5A     -1.365594     6A     -1.219278
       7A     -1.007361     8A     -0.805247     9A     -0.733102
      10A     -0.662611    11A     -0.615933    12A     -0.576744
      13A     -0.565432    14A     -0.524042    15A     -0.420678
      16A     -0.412846

  @DF-RHF Final Energy:  -208.06024064656685

   => Energetics <=

    Nuclear Repulsion Energy =            121.8766444955135739
    One-Electron Energy =                -524.6666092814589319
    Two-Electron Energy =                 194.7297241393785043
    Total Energy =                       -208.0602406465668537

  Dipole Moment: [D]
     X:    -2.0201      Y:     3.9769      Z:    -0.0007     Total:     4.4606

    SAPT Results
  --------------------------------------------------------------------------------------------------------
    Electrostatics                -49.94119767 [mEh]     -31.33857467 [kcal/mol]    -131.12059642 [kJ/mol]
      Elst10,r                    -49.94119767 [mEh]     -31.33857467 [kcal/mol]    -131.12059642 [kJ/mol]

    Exchange                       48.19126665 [mEh]      30.24047637 [kcal/mol]     126.52615315 [kJ/mol]
      Exch10                       48.19126665 [mEh]      30.24047637 [kcal/mol]     126.52615315 [kJ/mol]
      Exch10(S^2)                  47.39281240 [mEh]      29.73943877 [kcal/mol]     124.42981181 [kJ/mol]

    Induction                     -23.22728835 [mEh]     -14.57534349 [kcal/mol]     -60.98323715 [kJ/mol]
      Ind20,r                     -27.30516011 [mEh]     -17.13424665 [kcal/mol]     -71.68968799 [kJ/mol]
      Exch-Ind20,r                 14.06838314 [mEh]       8.82804370 [kcal/mol]      36.93653485 [kJ/mol]
      delta HF,r (2)               -9.99051138 [mEh]      -6.26914054 [kcal/mol]     -26.23008401 [kJ/mol]

    Dispersion                    -12.24795960 [mEh]      -7.68571069 [kcal/mol]     -32.15701351 [kJ/mol]
      Disp20                      -15.31669566 [mEh]      -9.61137163 [kcal/mol]     -40.21397891 [kJ/mol]
      Exch-Disp20                   3.06873605 [mEh]       1.92566095 [kcal/mol]       8.05696540 [kJ/mol]
      Disp20 (SS)                  -7.65834783 [mEh]      -4.80568582 [kcal/mol]     -20.10698945 [kJ/mol]
      Disp20 (OS)                  -7.65834783 [mEh]      -4.80568582 [kcal/mol]     -20.10698945 [kJ/mol]
      Exch-Disp20 (SS)              1.93156924 [mEh]       1.21207800 [kcal/mol]       5.07133434 [kJ/mol]
      Exch-Disp20 (OS)              1.13716681 [mEh]       0.71358295 [kcal/mol]       2.98563106 [kJ/mol]

  Total HF                        -24.97721937 [mEh]     -15.67344178 [kcal/mol]     -65.57768042 [kJ/mol]
  Total SAPT0                     -37.22517897 [mEh]     -23.35915247 [kcal/mol]     -97.73469393 [kJ/mol]

  Special recipe for scaled SAPT0 (see Manual):
    Electrostatics sSAPT0         -49.94119767 [mEh]     -31.33857467 [kcal/mol]    -131.12059642 [kJ/mol]
    Exchange sSAPT0                48.19126665 [mEh]      30.24047637 [kcal/mol]     126.52615315 [kJ/mol]
    Induction sSAPT0              -22.50418684 [mEh]     -14.12159044 [kcal/mol]     -59.08473442 [kJ/mol]
    Dispersion sSAPT0             -12.09022949 [mEh]      -7.58673355 [kcal/mol]     -31.74289316 [kJ/mol]
  Total sSAPT0                    -36.34434736 [mEh]     -22.80642229 [kcal/mol]     -95.42207085 [kJ/mol]
  --------------------------------------------------------------------------------------------------------

*** Psi4 exiting successfully. Buy a developer a beer!
