                               Psi4 1.3.2 release

  ==> Input File <==

--------------------------------------------------------------------------
# Any line starting with the # character is a comment line
#! Sample  computation

memory 22 gb

molecule Dimer {
0 1
 C -4.212789   -0.985846   -0.000052
 C -3.502876    0.355930   -0.000296
 C -2.002436    0.229531   -0.000083
 O -1.416290   -0.846939   -0.000267
 O -1.398925    1.408782    0.000173
 H -3.940451   -1.567643    0.878037
 H -5.292115   -0.843577   -0.000269
 H -3.940151   -1.568115   -0.877732
 H -3.774361    0.956158    0.869675
 H -3.774107    0.955662   -0.870697
 H -0.402425    1.293567   -0.000003

 --
0 1
 C  3.469438    0.434573    0.000646
 C  1.965046    0.283578   -0.000248
 O  1.250097    1.297591   -0.000800
 N  1.452111   -0.955384   -0.000282
 H  0.437171   -1.062490   -0.000556
 H  2.050478   -1.759884    0.000476
 C  4.290471   -0.846785    0.000933
 H  5.353118   -0.611538    0.001462
 H  4.091632   -1.450656    0.886596
 H  4.092449   -1.450508   -0.885010
 H  3.707390    1.047806   -0.869365
 H  3.706410    1.047543    0.871116

units angstrom

no_reorient
symmetry c1
}

set globals{
  basis jun-cc-pvtz
}

energy('sapt0')

--------------------------------------------------------------------------

  //              Dimer HF             //
    Molecular point group: c1
  Charge       = 0
  Multiplicity = 1
  Basis Set: JUN-CC-PVTZ
    Blend: JUN-CC-PVTZ
  Basis Set: (JUN-CC-PVTZ AUX)
    Blend: JUN-CC-PVTZ-JKFIT
  @DF-RHF Final Energy:  -514.07908597685162
    Total Energy =                       -514.0790859768516157
  //            Monomer A HF           //
    Molecular point group: c1
  Multiplicity = 1
  Basis Set: JUN-CC-PVTZ
    Blend: JUN-CC-PVTZ
  Basis Set: (JUN-CC-PVTZ AUX)
    Blend: JUN-CC-PVTZ-JKFIT
  @DF-RHF Final Energy:  -266.94913378925315
    Total Energy =                       -266.9491337892531533
  //            Monomer B HF           //
    Molecular point group: c1

    Geometry (in Angstrom), charge = 0, multiplicity = 1:

       Center              X                  Y                   Z               Mass
    ------------   -----------------  -----------------  -----------------  -----------------
      Gh(C)          -4.197257578215    -1.019580825310    -0.000026919134    12.000000000000
      Gh(C)          -3.487344578215     0.322195174690    -0.000270919134    12.000000000000
      Gh(C)          -1.986904578215     0.195796174690    -0.000057919134    12.000000000000
      Gh(O)          -1.400758578215    -0.880673825310    -0.000241919134    15.994914619570
      Gh(O)          -1.383393578215     1.375047174690     0.000198080866    15.994914619570
      Gh(H)          -3.924919578215    -1.601377825310     0.878062080866     1.007825032230
      Gh(H)          -5.276583578215    -0.877311825310    -0.000243919134     1.007825032230
      Gh(H)          -3.924619578215    -1.601849825310    -0.877706919134     1.007825032230
      Gh(H)          -3.758829578215     0.922423174690     0.869700080866     1.007825032230
      Gh(H)          -3.758575578215     0.921927174690    -0.870671919134     1.007825032230
      Gh(H)          -0.386893578215     1.259832174690     0.000022080866     1.007825032230
         C            3.484969421785     0.400838174690     0.000671080866    12.000000000000
         C            1.980577421785     0.249843174690    -0.000222919134    12.000000000000
         O            1.265628421785     1.263856174690    -0.000774919134    15.994914619570
         N            1.467642421785    -0.989118825310    -0.000256919134    14.003074004430
         H            0.452702421785    -1.096224825310    -0.000530919134     1.007825032230
         H            2.066009421785    -1.793618825310     0.000501080866     1.007825032230
         C            4.306002421785    -0.880519825310     0.000958080866    12.000000000000
         H            5.368649421785    -0.645272825310     0.001487080866     1.007825032230
         H            4.107163421785    -1.484390825310     0.886621080866     1.007825032230
         H            4.107980421785    -1.484242825310    -0.884984919134     1.007825032230
         H            3.722921421785     1.014071174690    -0.869339919134     1.007825032230
         H            3.721941421785     1.013808174690     0.871141080866     1.007825032230

  Charge       = 0
  Multiplicity = 1
  Basis Set: JUN-CC-PVTZ
    Blend: JUN-CC-PVTZ
  Basis Set: (JUN-CC-PVTZ AUX)
    Blend: JUN-CC-PVTZ-JKFIT

    Orbital Energies [Eh]
    ---------------------

    Doubly Occupied:

       1A    -20.505748     2A    -15.591259     3A    -11.347848
       4A    -11.241144     5A    -11.236545     6A     -1.362179
       7A     -1.217251     8A     -1.059593     9A     -0.903988
      10A     -0.795408    11A     -0.738162    12A     -0.644815
      13A     -0.644719    14A     -0.595056    15A     -0.558655
      16A     -0.551560    17A     -0.524913    18A     -0.502833
      19A     -0.413729    20A     -0.408565

  @DF-RHF Final Energy:  -247.10583761488107

   => Energetics <=

    Nuclear Repulsion Energy =            179.2874746015192500
    One-Electron Energy =                -691.0986874651244989
    Two-Electron Energy =                 264.7053752487241809
    Total Energy =                       -247.1058376148810680

  Dipole Moment: [D]
     X:     2.2158      Y:    -4.0048      Z:     0.0028     Total:     4.5769

    SAPT Results
  --------------------------------------------------------------------------------------------------------
    Electrostatics                -49.86129559 [mEh]     -31.28843536 [kcal/mol]    -130.91081353 [kJ/mol]
      Elst10,r                    -49.86129559 [mEh]     -31.28843536 [kcal/mol]    -130.91081353 [kJ/mol]

    Exchange                       48.45390815 [mEh]      30.40528641 [kcal/mol]     127.21571832 [kJ/mol]
      Exch10                       48.45390815 [mEh]      30.40528641 [kcal/mol]     127.21571832 [kJ/mol]
      Exch10(S^2)                  47.67101563 [mEh]      29.91401393 [kcal/mol]     125.16023429 [kJ/mol]

    Induction                     -22.70718528 [mEh]     -14.24897389 [kcal/mol]     -59.61770674 [kJ/mol]
      Ind20,r                     -27.00039385 [mEh]     -16.94300294 [kcal/mol]     -70.88952429 [kJ/mol]
      Exch-Ind20,r                 14.09588664 [mEh]       8.84530241 [kcal/mol]      37.00874528 [kJ/mol]
      delta HF,r (2)               -9.80267807 [mEh]      -6.15127336 [kcal/mol]     -25.73692773 [kJ/mol]

    Dispersion                    -12.65183169 [mEh]      -7.93914424 [kcal/mol]     -33.21737952 [kJ/mol]
      Disp20                      -15.83018537 [mEh]      -9.93359129 [kcal/mol]     -41.56214595 [kJ/mol]
      Exch-Disp20                   3.17835368 [mEh]       1.99444705 [kcal/mol]       8.34476644 [kJ/mol]
      Disp20 (SS)                  -7.91509268 [mEh]      -4.96679564 [kcal/mol]     -20.78107298 [kJ/mol]
      Disp20 (OS)                  -7.91509268 [mEh]      -4.96679564 [kcal/mol]     -20.78107298 [kJ/mol]
      Exch-Disp20 (SS)              1.99720683 [mEh]       1.25326621 [kcal/mol]       5.24366581 [kJ/mol]
      Exch-Disp20 (OS)              1.18114685 [mEh]       0.74118084 [kcal/mol]       3.10110063 [kJ/mol]

  Total HF                        -24.11457272 [mEh]     -15.13212284 [kcal/mol]     -63.31280195 [kJ/mol]
  Total SAPT0                     -36.76640440 [mEh]     -23.07126708 [kcal/mol]     -96.53018146 [kJ/mol]

  Special recipe for scaled SAPT0 (see Manual):
    Electrostatics sSAPT0         -49.86129559 [mEh]     -31.28843536 [kcal/mol]    -130.91081353 [kJ/mol]
    Exchange sSAPT0                48.45390815 [mEh]      30.40528641 [kcal/mol]     127.21571832 [kJ/mol]
    Induction sSAPT0              -22.00123484 [mEh]     -13.80598330 [kcal/mol]     -57.76423412 [kJ/mol]
    Dispersion sSAPT0             -12.49265332 [mEh]      -7.83925831 [kcal/mol]     -32.79945678 [kJ/mol]
  Total sSAPT0                    -35.90127560 [mEh]     -22.52839056 [kcal/mol]     -94.25878610 [kJ/mol]
  --------------------------------------------------------------------------------------------------------

*** Psi4 exiting successfully. Buy a developer a beer!
