                               Psi4 1.3.2 release

  ==> Input File <==

--------------------------------------------------------------------------
# Any line starting with the # character is a comment line
#! Sample  computation

memory 22 gb

molecule Dimer {
0 1
 C -3.288775    0.747734   -0.000140
 C -2.460690   -0.524493   -0.000158
 C -0.978561   -0.262784    0.000137
 O -0.489627    0.860361    0.000389
 O -0.271238   -1.385175    0.000026
 H -3.070180    1.352020   -0.878046
 H -4.350641    0.508116   -0.000352
 H -3.070481    1.351798    0.877994
 H -2.676237   -1.146586   -0.870438
 H -2.676534   -1.146801    0.869895
 H  0.705540   -1.180561    0.000226

 --
0 1
 C  2.962921    0.074834   -0.000158
 O  2.387398   -1.015829    0.000063
 N  2.348460    1.263319   -0.000089
 H  2.891576    2.107057   -0.000240
 H  1.328403    1.294302    0.000137
 H  4.057708    0.130822   -0.000470

units angstrom

no_reorient
symmetry c1
}

set globals{
  basis jun-cc-pvtz
}

energy('sapt0')

--------------------------------------------------------------------------

  //              Dimer HF             //
    Molecular point group: c1
  Charge       = 0
  Multiplicity = 1
  Basis Set: JUN-CC-PVTZ
    Blend: JUN-CC-PVTZ
  Basis Set: (JUN-CC-PVTZ AUX)
    Blend: JUN-CC-PVTZ-JKFIT
  @DF-RHF Final Energy:  -435.97435189593301
    Total Energy =                       -435.9743518959330686
  //            Monomer A HF           //
    Molecular point group: c1
  Multiplicity = 1
  Basis Set: JUN-CC-PVTZ
    Blend: JUN-CC-PVTZ
  Basis Set: (JUN-CC-PVTZ AUX)
    Blend: JUN-CC-PVTZ-JKFIT
  @DF-RHF Final Energy:  -266.94974048971432
    Total Energy =                       -266.9497404897143156
  //            Monomer B HF           //
    Molecular point group: c1

    Geometry (in Angstrom), charge = 0, multiplicity = 1:

       Center              X                  Y                   Z               Mass
    ------------   -----------------  -----------------  -----------------  -----------------
      Gh(C)          -3.345941334023     0.774887564073    -0.000150643278    12.000000000000
      Gh(C)          -2.517856334023    -0.497339435927    -0.000168643278    12.000000000000
      Gh(C)          -1.035727334023    -0.235630435927     0.000126356722    12.000000000000
      Gh(O)          -0.546793334023     0.887514564073     0.000378356722    15.994914619570
      Gh(O)          -0.328404334023    -1.358021435927     0.000015356722    15.994914619570
      Gh(H)          -3.127346334023     1.379173564073    -0.878056643278     1.007825032230
      Gh(H)          -4.407807334023     0.535269564073    -0.000362643278     1.007825032230
      Gh(H)          -3.127647334023     1.378951564073     0.877983356722     1.007825032230
      Gh(H)          -2.733403334023    -1.119432435927    -0.870448643278     1.007825032230
      Gh(H)          -2.733700334023    -1.119647435927     0.869884356722     1.007825032230
      Gh(H)           0.648373665977    -1.153407435927     0.000215356722     1.007825032230
         C            2.905754665977     0.101987564073    -0.000168643278    12.000000000000
         O            2.330231665977    -0.988675435927     0.000052356722    15.994914619570
         N            2.291293665977     1.290472564073    -0.000099643278    14.003074004430
         H            2.834409665977     2.134210564073    -0.000250643278     1.007825032230
         H            1.271236665977     1.321455564073     0.000126356722     1.007825032230
         H            4.000541665977     0.157975564073    -0.000480643278     1.007825032230

  Charge       = 0
  Multiplicity = 1
  Basis Set: JUN-CC-PVTZ
    Blend: JUN-CC-PVTZ
  Basis Set: (JUN-CC-PVTZ AUX)
    Blend: JUN-CC-PVTZ-JKFIT

    Orbital Energies [Eh]
    ---------------------

    Doubly Occupied:

       1A    -20.525759     2A    -15.603009     3A    -11.356344
       4A     -1.373846     5A     -1.227817     6A     -0.854869
       7A     -0.758688     8A     -0.677133     9A     -0.601028
      10A     -0.571347    11A     -0.434595    12A     -0.421052

  @DF-RHF Final Energy:  -169.00207483555147

   => Energetics <=

    Nuclear Repulsion Energy =             71.1550203048453795
    One-Electron Energy =                -371.5032142717309398
    Two-Electron Energy =                 131.3461191313340919
    Total Energy =                       -169.0020748355514684

  Dipole Moment: [D]
     X:     0.9751      Y:     4.3970      Z:    -0.0005     Total:     4.5038

    SAPT Results
  --------------------------------------------------------------------------------------------------------
    Electrostatics                -46.41539448 [mEh]     -29.12609976 [kcal/mol]    -121.86360141 [kJ/mol]
      Elst10,r                    -46.41539448 [mEh]     -29.12609976 [kcal/mol]    -121.86360141 [kJ/mol]

    Exchange                       44.43106627 [mEh]      27.88091502 [kcal/mol]     116.65374843 [kJ/mol]
      Exch10                       44.43106627 [mEh]      27.88091502 [kcal/mol]     116.65374843 [kJ/mol]
      Exch10(S^2)                  43.77580611 [mEh]      27.46973306 [kcal/mol]     114.93336310 [kJ/mol]

    Induction                     -20.55224246 [mEh]     -12.89672685 [kcal/mol]     -53.95990515 [kJ/mol]
      Ind20,r                     -24.60519206 [mEh]     -15.43999112 [kcal/mol]     -64.60092285 [kJ/mol]
      Exch-Ind20,r                 12.85554772 [mEh]       8.06697798 [kcal/mol]      33.75223588 [kJ/mol]
      delta HF,r (2)               -8.80259812 [mEh]      -5.52371371 [kcal/mol]     -23.11121818 [kJ/mol]

    Dispersion                    -11.84236670 [mEh]      -7.43119729 [kcal/mol]     -31.09212948 [kJ/mol]
      Disp20                      -14.74759879 [mEh]      -9.25425795 [kcal/mol]     -38.71981528 [kJ/mol]
      Exch-Disp20                   2.90523209 [mEh]       1.82306066 [kcal/mol]       7.62768580 [kJ/mol]
      Disp20 (SS)                  -7.37379939 [mEh]      -4.62712898 [kcal/mol]     -19.35990764 [kJ/mol]
      Disp20 (OS)                  -7.37379939 [mEh]      -4.62712898 [kcal/mol]     -19.35990764 [kJ/mol]
      Exch-Disp20 (SS)              1.82732972 [mEh]       1.14666671 [kcal/mol]       4.79765351 [kJ/mol]
      Exch-Disp20 (OS)              1.07790237 [mEh]       0.67639395 [kcal/mol]       2.83003229 [kJ/mol]

  Total HF                        -22.53657067 [mEh]     -14.14191160 [kcal/mol]     -59.16975813 [kJ/mol]
  Total SAPT0                     -34.37893736 [mEh]     -21.57310889 [kcal/mol]     -90.26188762 [kJ/mol]

  Special recipe for scaled SAPT0 (see Manual):
    Electrostatics sSAPT0         -46.41539448 [mEh]     -29.12609976 [kcal/mol]    -121.86360141 [kJ/mol]
    Exchange sSAPT0                44.43106627 [mEh]      27.88091502 [kcal/mol]     116.65374843 [kJ/mol]
    Induction sSAPT0              -19.96627164 [mEh]     -12.52902461 [kcal/mol]     -52.42143896 [kJ/mol]
    Dispersion sSAPT0             -11.70994284 [mEh]      -7.34810007 [kcal/mol]     -30.74445068 [kJ/mol]
  Total sSAPT0                    -33.66054268 [mEh]     -21.12230942 [kcal/mol]     -88.37574263 [kJ/mol]
  --------------------------------------------------------------------------------------------------------

*** Psi4 exiting successfully. Buy a developer a beer!
