                               Psi4 1.3.2 release

  ==> Input File <==

--------------------------------------------------------------------------
# Any line starting with the # character is a comment line
#! Sample  computation

memory 22 gb

molecule Dimer {
0 1
 C -3.807992   -0.755605    0.000108
 C -2.981527    0.517684    0.005327
 C -1.498427    0.258094   -0.001048
 O -1.009396   -0.865431   -0.007641
 O -0.792329    1.379834    0.001360
 H -3.585460   -1.365064    0.873459
 H -4.870355   -0.517877    0.005179
 H -3.591400   -1.354020   -0.882335
 H -3.195308    1.133852    0.880251
 H -3.201138    1.144984   -0.860154
 H  0.188285    1.175741   -0.002537

 --
0 1
 C  3.967006   -0.054855    0.002948
 C  2.461864   -0.045689   -0.000156
 O  1.843815    1.028213   -0.005844
 N  1.838888   -1.235034    0.003287
 H  4.386835   -1.057687    0.009809
 H  4.316204    0.479233   -0.878127
 H  4.312766    0.489966    0.878756
 H  0.818797   -1.254837   -0.000491
 H  2.366291   -2.087754    0.007105

units angstrom

no_reorient
symmetry c1
}

set globals{
  basis jun-cc-pvtz
}

energy('sapt0')

--------------------------------------------------------------------------

  //              Dimer HF             //
    Molecular point group: c1
  Charge       = 0
  Multiplicity = 1
  Basis Set: JUN-CC-PVTZ
    Blend: JUN-CC-PVTZ
  Basis Set: (JUN-CC-PVTZ AUX)
    Blend: JUN-CC-PVTZ-JKFIT
  @DF-RHF Final Energy:  -475.03323968365368
    Total Energy =                       -475.0332396836536191
  //            Monomer A HF           //
    Molecular point group: c1
  Multiplicity = 1
  Basis Set: JUN-CC-PVTZ
    Blend: JUN-CC-PVTZ
  Basis Set: (JUN-CC-PVTZ AUX)
    Blend: JUN-CC-PVTZ-JKFIT
  @DF-RHF Final Energy:  -266.94934014624795
    Total Energy =                       -266.9493401462479483
  //            Monomer B HF           //
    Molecular point group: c1

    Geometry (in Angstrom), charge = 0, multiplicity = 1:

       Center              X                  Y                   Z               Mass
    ------------   -----------------  -----------------  -----------------  -----------------
      Gh(C)          -3.823350679761    -0.779476536200     0.000337987445    12.000000000000
      Gh(C)          -2.996885679761     0.493812463800     0.005556987445    12.000000000000
      Gh(C)          -1.513785679761     0.234222463800    -0.000818012555    12.000000000000
      Gh(O)          -1.024754679761    -0.889302536200    -0.007411012555    15.994914619570
      Gh(O)          -0.807687679761     1.355962463800     0.001589987445    15.994914619570
      Gh(H)          -3.600818679761    -1.388935536200     0.873688987445     1.007825032230
      Gh(H)          -4.885713679761    -0.541748536200     0.005408987445     1.007825032230
      Gh(H)          -3.606758679761    -1.377891536200    -0.882105012555     1.007825032230
      Gh(H)          -3.210666679761     1.109980463800     0.880480987445     1.007825032230
      Gh(H)          -3.216496679761     1.121112463800    -0.859924012555     1.007825032230
      Gh(H)           0.172926320239     1.151869463800    -0.002307012555     1.007825032230
         C            3.951647320239    -0.078726536200     0.003177987445    12.000000000000
         C            2.446505320239    -0.069560536200     0.000073987445    12.000000000000
         O            1.828456320239     1.004341463800    -0.005614012555    15.994914619570
         N            1.823529320239    -1.258905536200     0.003516987445    14.003074004430
         H            4.371476320239    -1.081558536200     0.010038987445     1.007825032230
         H            4.300845320239     0.455361463800    -0.877897012555     1.007825032230
         H            4.297407320239     0.466094463800     0.878985987445     1.007825032230
         H            0.803438320239    -1.278708536200    -0.000261012555     1.007825032230
         H            2.350932320239    -2.111625536200     0.007334987445     1.007825032230

  Charge       = 0
  Multiplicity = 1
  Basis Set: JUN-CC-PVTZ
    Blend: JUN-CC-PVTZ
  Basis Set: (JUN-CC-PVTZ AUX)
    Blend: JUN-CC-PVTZ-JKFIT

    Orbital Energies [Eh]
    ---------------------

    Doubly Occupied:

       1A    -20.509971     2A    -15.594177     3A    -11.352612
       4A    -11.238042     5A     -1.365974     6A     -1.218894
       7A     -1.007194     8A     -0.804692     9A     -0.733000
      10A     -0.662487    11A     -0.615866    12A     -0.576974
      13A     -0.565341    14A     -0.524111    15A     -0.420769
      16A     -0.412861

  @DF-RHF Final Energy:  -208.06028387538453

   => Energetics <=

    Nuclear Repulsion Energy =            121.8642657482906202
    One-Electron Energy =                -524.6431690863556696
    Two-Electron Energy =                 194.7186194626805218
    Total Energy =                       -208.0602838753845276

  Dipole Moment: [D]
     X:     1.6054      Y:    -4.1507      Z:     0.0161     Total:     4.4504

    SAPT Results
  --------------------------------------------------------------------------------------------------------
    Electrostatics                -48.79915532 [mEh]     -30.62193228 [kcal/mol]    -128.12216464 [kJ/mol]
      Elst10,r                    -48.79915532 [mEh]     -30.62193228 [kcal/mol]    -128.12216464 [kJ/mol]

    Exchange                       47.16187409 [mEh]      29.59452279 [kcal/mol]     123.82348337 [kJ/mol]
      Exch10                       47.16187409 [mEh]      29.59452279 [kcal/mol]     123.82348337 [kJ/mol]
      Exch10(S^2)                  46.42178815 [mEh]      29.13011185 [kcal/mol]     121.88038799 [kJ/mol]

    Induction                     -21.97838079 [mEh]     -13.79164216 [kcal/mol]     -57.70423082 [kJ/mol]
      Ind20,r                     -26.17238794 [mEh]     -16.42342139 [kcal/mol]     -68.71559508 [kJ/mol]
      Exch-Ind20,r                 13.65785119 [mEh]       8.57043101 [kcal/mol]      35.85868337 [kJ/mol]
      delta HF,r (2)               -9.46384404 [mEh]      -5.93865179 [kcal/mol]     -24.84731910 [kJ/mol]

    Dispersion                    -12.38844337 [mEh]      -7.77386558 [kcal/mol]     -32.52585360 [kJ/mol]
      Disp20                      -15.47829874 [mEh]      -9.71277910 [kcal/mol]     -40.63826775 [kJ/mol]
      Exch-Disp20                   3.08985537 [mEh]       1.93891352 [kcal/mol]       8.11241415 [kJ/mol]
      Disp20 (SS)                  -7.73914937 [mEh]      -4.85638955 [kcal/mol]     -20.31913388 [kJ/mol]
      Disp20 (OS)                  -7.73914937 [mEh]      -4.85638955 [kcal/mol]     -20.31913388 [kJ/mol]
      Exch-Disp20 (SS)              1.94181285 [mEh]       1.21850596 [kcal/mol]       5.09822893 [kJ/mol]
      Exch-Disp20 (OS)              1.14804252 [mEh]       0.72040756 [kcal/mol]       3.01418522 [kJ/mol]

  Total HF                        -23.61566202 [mEh]     -14.81905165 [kcal/mol]     -62.00291209 [kJ/mol]
  Total SAPT0                     -36.00410540 [mEh]     -22.59291723 [kcal/mol]     -94.52876569 [kJ/mol]

  Special recipe for scaled SAPT0 (see Manual):
    Electrostatics sSAPT0         -48.79915532 [mEh]     -30.62193228 [kcal/mol]    -128.12216464 [kJ/mol]
    Exchange sSAPT0                47.16187409 [mEh]      29.59452279 [kcal/mol]     123.82348337 [kJ/mol]
    Induction sSAPT0              -21.31468460 [mEh]     -13.37516652 [kcal/mol]     -55.96169670 [kJ/mol]
    Dispersion sSAPT0             -12.23829346 [mEh]      -7.67964509 [kcal/mol]     -32.13163504 [kJ/mol]
  Total sSAPT0                    -35.19025928 [mEh]     -22.08222109 [kcal/mol]     -92.39201302 [kJ/mol]
  --------------------------------------------------------------------------------------------------------

*** Psi4 exiting successfully. Buy a developer a beer!
