                               Psi4 1.3.2 release

  ==> Input File <==

--------------------------------------------------------------------------
# Any line starting with the # character is a comment line
#! Sample  computation

memory 22 gb

molecule Dimer {
0 1
 C  -2.014734   -0.229345   -0.077438
 O  -1.287216   -1.062131   -0.577226
 O  -1.585704    0.991606    0.305302
 H  -0.631499    1.046411    0.094841
 C  -3.478465   -0.403596    0.196738
 H  -3.791427   -1.394168   -0.112661
 H  -3.669231   -0.261164    1.258644
 H  -4.041378    0.355575   -0.342955

 --
0 1
 C   1.539174    1.911935   -0.124800
 C   1.609877    0.614072   -0.448114
 C   1.942756   -0.488054    0.504069
 C   3.215098   -1.223154    0.080228
 H   1.313961    2.666443   -0.866250
 H   1.717346    2.243188    0.891064
 H   1.427217    0.318757   -1.477616
 H   2.059596   -0.079603    1.510017
 H   1.109448   -1.194339    0.525245
 H   3.103366   -1.637604   -0.921830
 H   4.068647   -0.545802    0.071931
 H   3.435073   -2.044645    0.760868

units angstrom

no_reorient
symmetry c1
}

set globals{
  basis jun-cc-pvtz
}

energy('sapt0')

--------------------------------------------------------------------------

  //              Dimer HF             //
    Molecular point group: c1
  Charge       = 0
  Multiplicity = 1
  Basis Set: JUN-CC-PVTZ
    Blend: JUN-CC-PVTZ
  Basis Set: (JUN-CC-PVTZ AUX)
    Blend: JUN-CC-PVTZ-JKFIT
  @DF-RHF Final Energy:  -384.07099116637295
    Total Energy =                       -384.0709911663729486
  //            Monomer A HF           //
    Molecular point group: c1
  Multiplicity = 1
  Basis Set: JUN-CC-PVTZ
    Blend: JUN-CC-PVTZ
  Basis Set: (JUN-CC-PVTZ AUX)
    Blend: JUN-CC-PVTZ-JKFIT
  @DF-RHF Final Energy:  -227.90403571210251
    Total Energy =                       -227.9040357121025124
  //            Monomer B HF           //
    Molecular point group: c1

    Geometry (in Angstrom), charge = 0, multiplicity = 1:

       Center              X                  Y                   Z               Mass
    ------------   -----------------  -----------------  -----------------  -----------------
      Gh(C)          -1.962713120972    -0.233851921337    -0.065558469460    12.000000000000
      Gh(O)          -1.235195120972    -1.066637921337    -0.565346469460    15.994914619570
      Gh(O)          -1.533683120972     0.987099078663     0.317181530540    15.994914619570
      Gh(H)          -0.579478120972     1.041904078663     0.106720530540     1.007825032230
      Gh(C)          -3.426444120972    -0.408102921337     0.208617530540    12.000000000000
      Gh(H)          -3.739406120972    -1.398674921337    -0.100781469460     1.007825032230
      Gh(H)          -3.617210120972    -0.265670921337     1.270523530540     1.007825032230
      Gh(H)          -3.989357120972     0.351068078663    -0.331075469460     1.007825032230
         C            1.591194879028     1.907428078663    -0.112920469460    12.000000000000
         C            1.661897879028     0.609565078663    -0.436234469460    12.000000000000
         C            1.994776879028    -0.492560921337     0.515948530540    12.000000000000
         C            3.267118879028    -1.227660921337     0.092107530540    12.000000000000
         H            1.365981879028     2.661936078663    -0.854370469460     1.007825032230
         H            1.769366879028     2.238681078663     0.902943530540     1.007825032230
         H            1.479237879028     0.314250078663    -1.465736469460     1.007825032230
         H            2.111616879028    -0.084109921337     1.521896530540     1.007825032230
         H            1.161468879028    -1.198845921337     0.537124530540     1.007825032230
         H            3.155386879028    -1.642110921337    -0.909950469460     1.007825032230
         H            4.120667879028    -0.550308921337     0.083810530540     1.007825032230
         H            3.487093879028    -2.049151921337     0.772747530540     1.007825032230

  Charge       = 0
  Multiplicity = 1
  Basis Set: JUN-CC-PVTZ
    Blend: JUN-CC-PVTZ
  Basis Set: (JUN-CC-PVTZ AUX)
    Blend: JUN-CC-PVTZ-JKFIT

    Orbital Energies [Eh]
    ---------------------

    Doubly Occupied:

       1A    -11.231573     2A    -11.224803     3A    -11.217870
       4A    -11.214617     5A     -1.081097     6A     -0.987522
       7A     -0.856475     8A     -0.755469     9A     -0.643584
      10A     -0.606674    11A     -0.585254    12A     -0.535152
      13A     -0.518185    14A     -0.487548    15A     -0.476848
      16A     -0.356320

  @DF-RHF Final Energy:  -156.16429517099400

   => Energetics <=

    Nuclear Repulsion Energy =            117.4778343127657507
    One-Electron Energy =                -441.7262752570953808
    Two-Electron Energy =                 168.0841457733356208
    Total Energy =                       -156.1642951709939950

  Dipole Moment: [D]
     X:     0.0924      Y:    -0.4346      Z:     0.0778     Total:     0.4510

    SAPT Results
  --------------------------------------------------------------------------------------------------------
    Electrostatics                -12.37429504 [mEh]      -7.76498737 [kcal/mol]     -32.48870715 [kJ/mol]
      Elst10,r                    -12.37429504 [mEh]      -7.76498737 [kcal/mol]     -32.48870715 [kJ/mol]

    Exchange                       14.98489575 [mEh]       9.40316405 [kcal/mol]      39.34283837 [kJ/mol]
      Exch10                       14.98489575 [mEh]       9.40316405 [kcal/mol]      39.34283837 [kJ/mol]
      Exch10(S^2)                  14.85591910 [mEh]       9.32222998 [kcal/mol]      39.00421023 [kJ/mol]

    Induction                      -5.27088398 [mEh]      -3.30752964 [kcal/mol]     -13.83870399 [kJ/mol]
      Ind20,r                      -9.20990771 [mEh]      -5.77930434 [kcal/mol]     -24.18060936 [kJ/mol]
      Exch-Ind20,r                  6.14988517 [mEh]       3.85911120 [kcal/mol]      16.14652128 [kJ/mol]
      delta HF,r (2)               -2.21086144 [mEh]      -1.38733650 [kcal/mol]      -5.80461592 [kJ/mol]

    Dispersion                     -7.60845235 [mEh]      -4.77437593 [kcal/mol]     -19.97598889 [kJ/mol]
      Disp20                       -8.97269129 [mEh]      -5.63044879 [kcal/mol]     -23.55779773 [kJ/mol]
      Exch-Disp20                   1.36423894 [mEh]       0.85607286 [kcal/mol]       3.58180884 [kJ/mol]
      Disp20 (SS)                  -4.48634564 [mEh]      -2.81522439 [kcal/mol]     -11.77889886 [kJ/mol]
      Disp20 (OS)                  -4.48634564 [mEh]      -2.81522439 [kcal/mol]     -11.77889886 [kJ/mol]
      Exch-Disp20 (SS)              0.88715818 [mEh]       0.55670016 [kcal/mol]       2.32923349 [kJ/mol]
      Exch-Disp20 (OS)              0.47708075 [mEh]       0.29937269 [kcal/mol]       1.25257535 [kJ/mol]

  Total HF                         -2.66028328 [mEh]      -1.66935296 [kcal/mol]      -6.98457278 [kJ/mol]
  Total SAPT0                     -10.26873563 [mEh]      -6.44372889 [kcal/mol]     -26.96056167 [kJ/mol]

  Special recipe for scaled SAPT0 (see Manual):
    Electrostatics sSAPT0         -12.37429504 [mEh]      -7.76498737 [kcal/mol]     -32.48870715 [kJ/mol]
    Exchange sSAPT0                14.98489575 [mEh]       9.40316405 [kcal/mol]      39.34283837 [kJ/mol]
    Induction sSAPT0               -5.10931246 [mEh]      -3.20614197 [kcal/mol]     -13.41449801 [kJ/mol]
    Dispersion sSAPT0              -7.57261068 [mEh]      -4.75188494 [kcal/mol]     -19.88188659 [kJ/mol]
  Total sSAPT0                    -10.07132243 [mEh]      -6.31985024 [kcal/mol]     -26.44225338 [kJ/mol]
  --------------------------------------------------------------------------------------------------------

*** Psi4 exiting successfully. Buy a developer a beer!
