                               Psi4 1.3.2 release

  ==> Input File <==

--------------------------------------------------------------------------
# Any line starting with the # character is a comment line
#! Sample  computation

memory 22 gb

molecule Dimer {
0 1
 C  -3.738164   -1.004581   -0.090040
 C  -3.018874    0.281318    0.275942
 C  -1.546565    0.225692   -0.028918
 O  -0.965142   -0.720329   -0.519235
 O  -0.928916    1.375612    0.313623
 H  -3.323963   -1.848237    0.458045
 H  -4.798436   -0.925837    0.143359
 H  -3.631147   -1.218150   -1.151420
 H  -3.122258    0.514807    1.336957
 H  -3.428220    1.139657   -0.259561
 H   0.017821    1.279592    0.085117

 --
0 1
 C   2.292882    1.795565   -0.185604
 C   2.157056    0.494170   -0.471682
 C   2.328284   -0.619823    0.509156
 C   3.465380   -1.554983    0.095497
 H   2.176177    2.555442   -0.946371
 H   2.534796    2.122903    0.818277
 H   1.916064    0.202693   -1.490214
 H   2.520410   -0.207010    1.501691
 H   1.395795   -1.187160    0.558501
 H   3.277467   -1.974195   -0.893131
 H   4.413531   -1.019054    0.059899
 H   3.564428   -2.381878    0.797636

units angstrom

no_reorient
symmetry c1
}

set globals{
  basis jun-cc-pvtz
}

energy('sapt0')

--------------------------------------------------------------------------

  //              Dimer HF             //
    Molecular point group: c1
  Charge       = 0
  Multiplicity = 1
  Basis Set: JUN-CC-PVTZ
    Blend: JUN-CC-PVTZ
  Basis Set: (JUN-CC-PVTZ AUX)
    Blend: JUN-CC-PVTZ-JKFIT
  @DF-RHF Final Energy:  -423.11916396883754
    Total Energy =                       -423.1191639688375972
  //            Monomer A HF           //
    Molecular point group: c1
  Multiplicity = 1
  Basis Set: JUN-CC-PVTZ
    Blend: JUN-CC-PVTZ
  Basis Set: (JUN-CC-PVTZ AUX)
    Blend: JUN-CC-PVTZ-JKFIT
  @DF-RHF Final Energy:  -266.95233615773338
    Total Energy =                       -266.9523361577333844
  //            Monomer B HF           //
    Molecular point group: c1

    Geometry (in Angstrom), charge = 0, multiplicity = 1:

       Center              X                  Y                   Z               Mass
    ------------   -----------------  -----------------  -----------------  -----------------
      Gh(C)          -3.711450899208    -1.027025447909    -0.082278415266    12.000000000000
      Gh(C)          -2.992160899208     0.258873552091     0.283703584734    12.000000000000
      Gh(C)          -1.519851899208     0.203247552091    -0.021156415266    12.000000000000
      Gh(O)          -0.938428899208    -0.742773447909    -0.511473415266    15.994914619570
      Gh(O)          -0.902202899208     1.353167552091     0.321384584734    15.994914619570
      Gh(H)          -3.297249899208    -1.870681447909     0.465806584734     1.007825032230
      Gh(H)          -4.771722899208    -0.948281447909     0.151120584734     1.007825032230
      Gh(H)          -3.604433899208    -1.240594447909    -1.143658415266     1.007825032230
      Gh(H)          -3.095544899208     0.492362552091     1.344718584734     1.007825032230
      Gh(H)          -3.401506899208     1.117212552091    -0.251799415266     1.007825032230
      Gh(H)           0.044534100792     1.257147552091     0.092878584734     1.007825032230
         C            2.319595100792     1.773120552091    -0.177842415266    12.000000000000
         C            2.183769100792     0.471725552091    -0.463920415266    12.000000000000
         C            2.354997100792    -0.642267447909     0.516917584734    12.000000000000
         C            3.492093100792    -1.577427447909     0.103258584734    12.000000000000
         H            2.202890100792     2.532997552091    -0.938609415266     1.007825032230
         H            2.561509100792     2.100458552091     0.826038584734     1.007825032230
         H            1.942777100792     0.180248552091    -1.482452415266     1.007825032230
         H            2.547123100792    -0.229454447909     1.509452584734     1.007825032230
         H            1.422508100792    -1.209604447909     0.566262584734     1.007825032230
         H            3.304180100792    -1.996639447909    -0.885369415266     1.007825032230
         H            4.440244100792    -1.041498447909     0.067660584734     1.007825032230
         H            3.591141100792    -2.404322447909     0.805397584734     1.007825032230

  Charge       = 0
  Multiplicity = 1
  Basis Set: JUN-CC-PVTZ
    Blend: JUN-CC-PVTZ
  Basis Set: (JUN-CC-PVTZ AUX)
    Blend: JUN-CC-PVTZ-JKFIT

    Orbital Energies [Eh]
    ---------------------

    Doubly Occupied:

       1A    -11.231577     2A    -11.224809     3A    -11.217872
       4A    -11.214621     5A     -1.081087     6A     -0.987526
       7A     -0.856471     8A     -0.755464     9A     -0.643571
      10A     -0.606670    11A     -0.585218    12A     -0.535180
      13A     -0.518216    14A     -0.487517    15A     -0.476818
      16A     -0.356331

  @DF-RHF Final Energy:  -156.16430065009968

   => Energetics <=

    Nuclear Repulsion Energy =            117.4760210268018454
    One-Electron Energy =                -441.7227443692435713
    Two-Electron Energy =                 168.0824226923420497
    Total Energy =                       -156.1643006500996762

  Dipole Moment: [D]
     X:     0.0242      Y:    -0.4411      Z:     0.0897     Total:     0.4508

    SAPT Results
  --------------------------------------------------------------------------------------------------------
    Electrostatics                -12.31963545 [mEh]      -7.73068796 [kcal/mol]     -32.34519841 [kJ/mol]
      Elst10,r                    -12.31963545 [mEh]      -7.73068796 [kcal/mol]     -32.34519841 [kJ/mol]

    Exchange                       15.01647297 [mEh]       9.42297905 [kcal/mol]      39.42574435 [kJ/mol]
      Exch10                       15.01647297 [mEh]       9.42297905 [kcal/mol]      39.42574435 [kJ/mol]
      Exch10(S^2)                  14.88731513 [mEh]       9.34193128 [kcal/mol]      39.08664048 [kJ/mol]

    Induction                      -5.22399852 [mEh]      -3.27810857 [kcal/mol]     -13.71560624 [kJ/mol]
      Ind20,r                      -9.15134417 [mEh]      -5.74255517 [kcal/mol]     -24.02685081 [kJ/mol]
      Exch-Ind20,r                  6.13224006 [mEh]       3.84803873 [kcal/mol]      16.10019405 [kJ/mol]
      delta HF,r (2)               -2.20489441 [mEh]      -1.38359213 [kcal/mol]      -5.78894948 [kJ/mol]

    Dispersion                     -7.72011213 [mEh]      -4.84444350 [kcal/mol]     -20.26915161 [kJ/mol]
      Disp20                       -9.09629412 [mEh]      -5.70801073 [kcal/mol]     -23.88231691 [kJ/mol]
      Exch-Disp20                   1.37618198 [mEh]       0.86356723 [kcal/mol]       3.61316530 [kJ/mol]
      Disp20 (SS)                  -4.54814706 [mEh]      -2.85400537 [kcal/mol]     -11.94115846 [kJ/mol]
      Disp20 (OS)                  -4.54814706 [mEh]      -2.85400537 [kcal/mol]     -11.94115846 [kJ/mol]
      Exch-Disp20 (SS)              0.89486411 [mEh]       0.56153571 [kcal/mol]       2.34946540 [kJ/mol]
      Exch-Disp20 (OS)              0.48131787 [mEh]       0.30203153 [kcal/mol]       1.26369990 [kJ/mol]

  Total HF                         -2.52716100 [mEh]      -1.58581747 [kcal/mol]      -6.63506030 [kJ/mol]
  Total SAPT0                     -10.24727314 [mEh]      -6.43026097 [kcal/mol]     -26.90421192 [kJ/mol]

  Special recipe for scaled SAPT0 (see Manual):
    Electrostatics sSAPT0         -12.31963545 [mEh]      -7.73068796 [kcal/mol]     -32.34519841 [kJ/mol]
    Exchange sSAPT0                15.01647297 [mEh]       9.42297905 [kcal/mol]      39.42574435 [kJ/mol]
    Induction sSAPT0               -5.06300546 [mEh]      -3.17708389 [kcal/mol]     -13.29291901 [kJ/mol]
    Dispersion sSAPT0              -7.68398247 [mEh]      -4.82177180 [kcal/mol]     -20.17429320 [kJ/mol]
  Total sSAPT0                    -10.05015041 [mEh]      -6.30656460 [kcal/mol]     -26.38666628 [kJ/mol]
  --------------------------------------------------------------------------------------------------------

*** Psi4 exiting successfully. Buy a developer a beer!
