                               Psi4 1.3.2 release

  ==> Input File <==

--------------------------------------------------------------------------
# Any line starting with the # character is a comment line
#! Sample  computation

memory 22 gb

molecule Dimer {
0 1
 C  2.490034   -0.512009   -0.059070
 O  2.167821    0.749206   -0.372116
 O  1.742180   -1.333246    0.418163
 H  3.540327   -0.698251   -0.300047
 H  1.225478    0.887965   -0.139129

 --
0 1
 C   -0.824640    1.932087    0.157241
 C   -1.016086    0.643263    0.468579
 C   -1.486457   -0.406832   -0.484425
 C   -2.817540   -1.009668   -0.032835
 H   -0.505125    2.650312    0.900132
 H   -0.998569    2.293519   -0.849032
 H   -0.836295    0.318288    1.489786
 H   -1.585964    0.023542   -1.483005
 H   -0.733100   -1.196502   -0.535534
 H   -2.724411   -1.445058    0.962192
 H   -3.594753   -0.246863    0.003976
 H   -3.139463   -1.795678   -0.714656

units angstrom

no_reorient
symmetry c1
}

set globals{
  basis jun-cc-pvtz
}

energy('sapt0')

--------------------------------------------------------------------------

  //              Dimer HF             //
    Molecular point group: c1
  Charge       = 0
  Multiplicity = 1
  Basis Set: JUN-CC-PVTZ
    Blend: JUN-CC-PVTZ
  Basis Set: (JUN-CC-PVTZ AUX)
    Blend: JUN-CC-PVTZ-JKFIT
  @DF-RHF Final Energy:  -345.01000527179315
    Total Energy =                       -345.0100052717931476
  //            Monomer A HF           //
    Molecular point group: c1
  Multiplicity = 1
  Basis Set: JUN-CC-PVTZ
    Blend: JUN-CC-PVTZ
  Basis Set: (JUN-CC-PVTZ AUX)
    Blend: JUN-CC-PVTZ-JKFIT
  @DF-RHF Final Energy:  -188.84248101960702
    Total Energy =                       -188.8424810196070212
  //            Monomer B HF           //
    Molecular point group: c1

    Geometry (in Angstrom), charge = 0, multiplicity = 1:

       Center              X                  Y                   Z               Mass
    ------------   -----------------  -----------------  -----------------  -----------------
      Gh(C)           2.399321894179    -0.504346347844    -0.065535044795    12.000000000000
      Gh(O)           2.077108894179     0.756868652156    -0.378581044795    15.994914619570
      Gh(O)           1.651467894179    -1.325583347844     0.411697955205    15.994914619570
      Gh(H)           3.449614894179    -0.690588347844    -0.306512044795     1.007825032230
      Gh(H)           1.134765894179     0.895627652156    -0.145594044795     1.007825032230
         C           -0.915352105821     1.939749652156     0.150775955205    12.000000000000
         C           -1.106798105821     0.650925652156     0.462113955205    12.000000000000
         C           -1.577169105821    -0.399169347844    -0.490890044795    12.000000000000
         C           -2.908252105821    -1.002005347844    -0.039300044795    12.000000000000
         H           -0.595837105821     2.657974652156     0.893666955205     1.007825032230
         H           -1.089281105821     2.301181652156    -0.855497044795     1.007825032230
         H           -0.927007105821     0.325950652156     1.483320955205     1.007825032230
         H           -1.676676105821     0.031204652156    -1.489470044795     1.007825032230
         H           -0.823812105821    -1.188839347844    -0.541999044795     1.007825032230
         H           -2.815123105821    -1.437395347844     0.955726955205     1.007825032230
         H           -3.685465105821    -0.239200347844    -0.002489044795     1.007825032230
         H           -3.230175105821    -1.788015347844    -0.721121044795     1.007825032230

  Charge       = 0
  Multiplicity = 1
  Basis Set: JUN-CC-PVTZ
    Blend: JUN-CC-PVTZ
  Basis Set: (JUN-CC-PVTZ AUX)
    Blend: JUN-CC-PVTZ-JKFIT

    Orbital Energies [Eh]
    ---------------------

    Doubly Occupied:

       1A    -11.231640     2A    -11.224828     3A    -11.217921
       4A    -11.214607     5A     -1.081064     6A     -0.987476
       7A     -0.856492     8A     -0.755451     9A     -0.643616
      10A     -0.606689    11A     -0.585134    12A     -0.535131
      13A     -0.518212    14A     -0.487526    15A     -0.476915
      16A     -0.356273

  @DF-RHF Final Energy:  -156.16427383860224

   => Energetics <=

    Nuclear Repulsion Energy =            117.4795177297176849
    One-Electron Energy =                -441.7296324340330784
    Two-Electron Energy =                 168.0858408657131235
    Total Energy =                       -156.1642738386022415

  Dipole Moment: [D]
     X:    -0.1428      Y:    -0.4212      Z:    -0.0790     Total:     0.4517

    SAPT Results
  --------------------------------------------------------------------------------------------------------
    Electrostatics                -12.92137780 [mEh]      -8.10828698 [kcal/mol]     -33.92507274 [kJ/mol]
      Elst10,r                    -12.92137780 [mEh]      -8.10828698 [kcal/mol]     -33.92507274 [kJ/mol]

    Exchange                       15.43731223 [mEh]       9.68705967 [kcal/mol]      40.53065768 [kJ/mol]
      Exch10                       15.43731223 [mEh]       9.68705967 [kcal/mol]      40.53065768 [kJ/mol]
      Exch10(S^2)                  15.29700042 [mEh]       9.59901268 [kcal/mol]      40.16226906 [kJ/mol]

    Induction                      -5.76634801 [mEh]      -3.61843801 [kcal/mol]     -15.13954462 [kJ/mol]
      Ind20,r                      -9.88929632 [mEh]      -6.20562713 [kcal/mol]     -25.96434391 [kJ/mol]
      Exch-Ind20,r                  6.52510000 [mEh]       4.09456207 [kcal/mol]      17.13164769 [kJ/mol]
      delta HF,r (2)               -2.40215169 [mEh]      -1.50737294 [kcal/mol]      -6.30684840 [kJ/mol]

    Dispersion                     -7.43205283 [mEh]      -4.66368356 [kcal/mol]     -19.51285202 [kJ/mol]
      Disp20                       -8.78669955 [mEh]      -5.51373721 [kcal/mol]     -23.06947649 [kJ/mol]
      Exch-Disp20                   1.35464672 [mEh]       0.85005365 [kcal/mol]       3.55662447 [kJ/mol]
      Disp20 (SS)                  -4.39334977 [mEh]      -2.75686861 [kcal/mol]     -11.53473824 [kJ/mol]
      Disp20 (OS)                  -4.39334977 [mEh]      -2.75686861 [kcal/mol]     -11.53473824 [kJ/mol]
      Exch-Disp20 (SS)              0.88377945 [mEh]       0.55457998 [kcal/mol]       2.32036263 [kJ/mol]
      Exch-Disp20 (OS)              0.47086727 [mEh]       0.29547367 [kcal/mol]       1.23626184 [kJ/mol]

  Total HF                         -3.25041358 [mEh]      -2.03966532 [kcal/mol]      -8.53395969 [kJ/mol]
  Total SAPT0                     -10.68246641 [mEh]      -6.70334888 [kcal/mol]     -28.04681171 [kJ/mol]

  Special recipe for scaled SAPT0 (see Manual):
    Electrostatics sSAPT0         -12.92137780 [mEh]      -8.10828698 [kcal/mol]     -33.92507274 [kJ/mol]
    Exchange sSAPT0                15.43731223 [mEh]       9.68705967 [kcal/mol]      40.53065768 [kJ/mol]
    Induction sSAPT0               -5.58514147 [mEh]      -3.50472919 [kcal/mol]     -14.66378692 [kJ/mol]
    Dispersion sSAPT0              -7.39443335 [mEh]      -4.64007698 [kcal/mol]     -19.41408210 [kJ/mol]
  Total sSAPT0                    -10.46364040 [mEh]      -6.56603348 [kcal/mol]     -27.47228408 [kJ/mol]
  --------------------------------------------------------------------------------------------------------

*** Psi4 exiting successfully. Buy a developer a beer!
