                               Psi4 1.3.2 release

  ==> Input File <==

--------------------------------------------------------------------------
# Any line starting with the # character is a comment line
#! Sample  computation

memory 22 gb

molecule Dimer {
0 1
 C    1.188599    0.108187   -0.000009
 O    0.644837    1.192624    0.000026
 O    0.505929   -1.057991   -0.000092
 H   -0.443552   -0.829699   -0.000106
 C    2.668933   -0.126455    0.000031
 H    3.188212    0.824952    0.000089
 H    2.944481   -0.707383    0.878072
 H    2.944540   -0.707309   -0.878040

 --
0 1
 C   -2.561414    0.026982    0.668199
 H   -3.183102   -0.655810    1.230851
 H   -1.940746    0.719331    1.220945
 C   -2.561448    0.027100   -0.668151
 H   -1.940809    0.719551   -1.220803
 H   -3.183163   -0.655589   -1.230897

units angstrom

no_reorient
symmetry c1
}

set globals{
  basis jun-cc-pvtz
}

energy('sapt0')

--------------------------------------------------------------------------

  //              Dimer HF             //
    Molecular point group: c1
  Charge       = 0
  Multiplicity = 1
  Basis Set: JUN-CC-PVTZ
    Blend: JUN-CC-PVTZ
  Basis Set: (JUN-CC-PVTZ AUX)
    Blend: JUN-CC-PVTZ-JKFIT
  @DF-RHF Final Energy:  -305.97051142880963
    Total Energy =                       -305.9705114288096297
  //            Monomer A HF           //
    Molecular point group: c1
  Multiplicity = 1
  Basis Set: JUN-CC-PVTZ
    Blend: JUN-CC-PVTZ
  Basis Set: (JUN-CC-PVTZ AUX)
    Blend: JUN-CC-PVTZ-JKFIT
  @DF-RHF Final Energy:  -227.90408302474543
    Total Energy =                       -227.9040830247454323
  //            Monomer B HF           //
    Molecular point group: c1

    Geometry (in Angstrom), charge = 0, multiplicity = 1:

       Center              X                  Y                   Z               Mass
    ------------   -----------------  -----------------  -----------------  -----------------
      Gh(C)           1.170477135146     0.093637194277    -0.000007821205    12.000000000000
      Gh(O)           0.626715135146     1.178074194277     0.000027178795    15.994914619570
      Gh(O)           0.487807135146    -1.072540805723    -0.000090821205    15.994914619570
      Gh(H)          -0.461673864854    -0.844248805723    -0.000104821205     1.007825032230
      Gh(C)           2.650811135146    -0.141004805723     0.000032178795    12.000000000000
      Gh(H)           3.170090135146     0.810402194277     0.000090178795     1.007825032230
      Gh(H)           2.926359135146    -0.721932805723     0.878073178795     1.007825032230
      Gh(H)           2.926418135146    -0.721858805723    -0.878038821205     1.007825032230
         C           -2.579535864854     0.012432194277     0.668200178795    12.000000000000
         H           -3.201223864854    -0.670359805723     1.230852178795     1.007825032230
         H           -1.958867864854     0.704781194277     1.220946178795     1.007825032230
         C           -2.579569864854     0.012550194277    -0.668149821205    12.000000000000
         H           -1.958930864854     0.705001194277    -1.220801821205     1.007825032230
         H           -3.201284864854    -0.670138805723    -1.230895821205     1.007825032230

  Charge       = 0
  Multiplicity = 1
  Basis Set: JUN-CC-PVTZ
    Blend: JUN-CC-PVTZ
  Basis Set: (JUN-CC-PVTZ AUX)
    Blend: JUN-CC-PVTZ-JKFIT

    Orbital Energies [Eh]
    ---------------------

    Doubly Occupied:

       1A    -11.231940     2A    -11.230254     3A     -1.033683
       4A     -0.792882     5A     -0.645440     6A     -0.585687
       7A     -0.509734     8A     -0.376215

  @DF-RHF Final Energy:   -78.06424177108221

   => Energetics <=

    Nuclear Repulsion Energy =             33.3687604632981021
    One-Electron Energy =                -170.0543334972468585
    Two-Electron Energy =                  58.6213312628665406
    Total Energy =                        -78.0642417710822087

  Dipole Moment: [D]
     X:    -0.0095      Y:     0.0060      Z:     0.0000     Total:     0.0112

    SAPT Results
  --------------------------------------------------------------------------------------------------------
    Electrostatics                -10.74337463 [mEh]      -6.74156936 [kcal/mol]     -28.20672621 [kJ/mol]
      Elst10,r                    -10.74337463 [mEh]      -6.74156936 [kcal/mol]     -28.20672621 [kJ/mol]

    Exchange                       12.80817092 [mEh]       8.03724860 [kcal/mol]      33.62784812 [kJ/mol]
      Exch10                       12.80817092 [mEh]       8.03724860 [kcal/mol]      33.62784812 [kJ/mol]
      Exch10(S^2)                  12.69389308 [mEh]       7.96553816 [kcal/mol]      33.32781168 [kJ/mol]

    Induction                      -4.25142927 [mEh]      -2.66781215 [kcal/mol]     -11.16212602 [kJ/mol]
      Ind20,r                      -7.78076020 [mEh]      -4.88250074 [kcal/mol]     -20.42838308 [kJ/mol]
      Exch-Ind20,r                  5.31902751 [mEh]       3.33774015 [kcal/mol]      13.96510481 [kJ/mol]
      delta HF,r (2)               -1.78969659 [mEh]      -1.12305156 [kcal/mol]      -4.69884774 [kJ/mol]

    Dispersion                     -6.06610955 [mEh]      -3.80654121 [kcal/mol]     -15.92656844 [kJ/mol]
      Disp20                       -7.20648777 [mEh]      -4.52213935 [kcal/mol]     -18.92063103 [kJ/mol]
      Exch-Disp20                   1.14037821 [mEh]       0.71559813 [kcal/mol]       2.99406259 [kJ/mol]
      Disp20 (SS)                  -3.60324388 [mEh]      -2.26106967 [kcal/mol]      -9.46031551 [kJ/mol]
      Disp20 (OS)                  -3.60324388 [mEh]      -2.26106967 [kcal/mol]      -9.46031551 [kJ/mol]
      Exch-Disp20 (SS)              0.74299780 [mEh]       0.46623816 [kcal/mol]       1.95074046 [kJ/mol]
      Exch-Disp20 (OS)              0.39738041 [mEh]       0.24935997 [kcal/mol]       1.04332213 [kJ/mol]

  Total HF                         -2.18663298 [mEh]      -1.37213291 [kcal/mol]      -5.74100410 [kJ/mol]
  Total SAPT0                      -8.25274254 [mEh]      -5.17867413 [kcal/mol]     -21.66757254 [kJ/mol]

  Special recipe for scaled SAPT0 (see Manual):
    Electrostatics sSAPT0         -10.74337463 [mEh]      -6.74156936 [kcal/mol]     -28.20672621 [kJ/mol]
    Exchange sSAPT0                12.80817092 [mEh]       8.03724860 [kcal/mol]      33.62784812 [kJ/mol]
    Induction sSAPT0               -4.10647714 [mEh]      -2.57685331 [kcal/mol]     -10.78155425 [kJ/mol]
    Dispersion sSAPT0              -6.03503240 [mEh]      -3.78704000 [kcal/mol]     -15.84497538 [kJ/mol]
  Total sSAPT0                     -8.07671325 [mEh]      -5.06821408 [kcal/mol]     -21.20540771 [kJ/mol]
  --------------------------------------------------------------------------------------------------------

*** Psi4 exiting successfully. Buy a developer a beer!
