                               Psi4 1.3.2 release

  ==> Input File <==

--------------------------------------------------------------------------
# Any line starting with the # character is a comment line
#! Sample  computation

memory 22 gb

molecule Dimer {
0 1
 C   -1.745506    0.025503   -0.000001
 O   -0.999383    1.139266    0.000003
 O   -1.319219   -1.105284   -0.000005
 H   -2.806735    0.288398   -0.000001
 H   -0.061396    0.861376    0.000003

 --
0 1
 C   1.992815   -0.097181    0.668243
 H   2.625634    0.575371    1.230759
 H   1.362479   -0.779606    1.222436
 C   1.992813   -0.097182   -0.668240
 H   1.362475   -0.779608   -1.222429
 H   2.625630    0.575369   -1.230760

units angstrom

no_reorient
symmetry c1
}

set globals{
  basis jun-cc-pvtz
}

energy('sapt0')

--------------------------------------------------------------------------

  //              Dimer HF             //
    Molecular point group: c1
  Charge       = 0
  Multiplicity = 1
  Basis Set: JUN-CC-PVTZ
    Blend: JUN-CC-PVTZ
  Basis Set: (JUN-CC-PVTZ AUX)
    Blend: JUN-CC-PVTZ-JKFIT
  @DF-RHF Final Energy:  -266.90943743136137
    Total Energy =                       -266.9094374313613685
  //            Monomer A HF           //
    Molecular point group: c1
  Multiplicity = 1
  Basis Set: JUN-CC-PVTZ
    Blend: JUN-CC-PVTZ
  Basis Set: (JUN-CC-PVTZ AUX)
    Blend: JUN-CC-PVTZ-JKFIT
  @DF-RHF Final Energy:  -188.84254041324411
    Total Energy =                       -188.8425404132441088
  //            Monomer B HF           //
    Molecular point group: c1

    Geometry (in Angstrom), charge = 0, multiplicity = 1:

       Center              X                  Y                   Z               Mass
    ------------   -----------------  -----------------  -----------------  -----------------
      Gh(C)          -1.677211307550     0.035439684451    -0.000001000983    12.000000000000
      Gh(O)          -0.931088307550     1.149202684451     0.000002999017    15.994914619570
      Gh(O)          -1.250924307550    -1.095347315549    -0.000005000983    15.994914619570
      Gh(H)          -2.738440307550     0.298334684451    -0.000001000983     1.007825032230
      Gh(H)           0.006898692450     0.871312684451     0.000002999017     1.007825032230
         C            2.061109692450    -0.087244315549     0.668242999017    12.000000000000
         H            2.693928692450     0.585307684451     1.230758999017     1.007825032230
         H            1.430773692450    -0.769669315549     1.222435999017     1.007825032230
         C            2.061107692450    -0.087245315549    -0.668240000983    12.000000000000
         H            1.430769692450    -0.769671315549    -1.222429000983     1.007825032230
         H            2.693924692450     0.585305684451    -1.230760000983     1.007825032230

  Charge       = 0
  Multiplicity = 1
  Basis Set: JUN-CC-PVTZ
    Blend: JUN-CC-PVTZ
  Basis Set: (JUN-CC-PVTZ AUX)
    Blend: JUN-CC-PVTZ-JKFIT

    Orbital Energies [Eh]
    ---------------------

    Doubly Occupied:

       1A    -11.231989     2A    -11.230305     3A     -1.033609
       4A     -0.793011     5A     -0.645269     6A     -0.585867
       7A     -0.509663     8A     -0.376189

  @DF-RHF Final Energy:   -78.06424129775134

   => Energetics <=

    Nuclear Repulsion Energy =             33.3657647760221252
    One-Electron Energy =                -170.0482075405510614
    Two-Electron Energy =                  58.6182014667775917
    Total Energy =                        -78.0642412977513374

  Dipole Moment: [D]
     X:     0.0111      Y:    -0.0076      Z:    -0.0000     Total:     0.0134

    SAPT Results
  --------------------------------------------------------------------------------------------------------
    Electrostatics                -11.12781507 [mEh]      -6.98280938 [kcal/mol]     -29.21607444 [kJ/mol]
      Elst10,r                    -11.12781507 [mEh]      -6.98280938 [kcal/mol]     -29.21607444 [kJ/mol]

    Exchange                       13.12215361 [mEh]       8.23427571 [kcal/mol]      34.45220957 [kJ/mol]
      Exch10                       13.12215361 [mEh]       8.23427571 [kcal/mol]      34.45220957 [kJ/mol]
      Exch10(S^2)                  12.99784780 [mEh]       8.15627263 [kcal/mol]      34.12584470 [kJ/mol]

    Induction                      -4.65005891 [mEh]      -2.91795602 [kcal/mol]     -12.20872798 [kJ/mol]
      Ind20,r                      -8.36791194 [mEh]      -5.25094402 [kcal/mol]     -21.96994978 [kJ/mol]
      Exch-Ind20,r                  5.65567171 [mEh]       3.54898758 [kcal/mol]      14.84896404 [kJ/mol]
      delta HF,r (2)               -1.93781868 [mEh]      -1.21599958 [kcal/mol]      -5.08774224 [kJ/mol]

    Dispersion                     -5.87480780 [mEh]      -3.68649755 [kcal/mol]     -15.42430575 [kJ/mol]
      Disp20                       -7.00323412 [mEh]      -4.39459576 [kcal/mol]     -18.38698866 [kJ/mol]
      Exch-Disp20                   1.12842632 [mEh]       0.70809821 [kcal/mol]       2.96268291 [kJ/mol]
      Disp20 (SS)                  -3.50161706 [mEh]      -2.19729788 [kcal/mol]      -9.19349433 [kJ/mol]
      Disp20 (OS)                  -3.50161706 [mEh]      -2.19729788 [kcal/mol]      -9.19349433 [kJ/mol]
      Exch-Disp20 (SS)              0.73772346 [mEh]       0.46292846 [kcal/mol]       1.93689267 [kJ/mol]
      Exch-Disp20 (OS)              0.39070287 [mEh]       0.24516975 [kcal/mol]       1.02579024 [kJ/mol]

  Total HF                         -2.65572037 [mEh]      -1.66648969 [kcal/mol]      -6.97259286 [kJ/mol]
  Total SAPT0                      -8.53052817 [mEh]      -5.35298724 [kcal/mol]     -22.39689861 [kJ/mol]

  Special recipe for scaled SAPT0 (see Manual):
    Electrostatics sSAPT0         -11.12781507 [mEh]      -6.98280938 [kcal/mol]     -29.21607444 [kJ/mol]
    Exchange sSAPT0                13.12215361 [mEh]       8.23427571 [kcal/mol]      34.45220957 [kJ/mol]
    Induction sSAPT0               -4.48623691 [mEh]      -2.81515616 [kcal/mol]     -11.77861338 [kJ/mol]
    Dispersion sSAPT0              -5.84212184 [mEh]      -3.66598680 [kcal/mol]     -15.33848878 [kJ/mol]
  Total sSAPT0                     -8.33402021 [mEh]      -5.22967663 [kcal/mol]     -21.88096704 [kJ/mol]
  --------------------------------------------------------------------------------------------------------

*** Psi4 exiting successfully. Buy a developer a beer!
