                               Psi4 1.3.2 release

  ==> Input File <==

--------------------------------------------------------------------------
# Any line starting with the # character is a comment line
#! Sample  computation

memory 22 gb

molecule Dimer {
0 1
 C   -3.056725   -0.593682    0.000035
 C   -2.105973    0.589969    0.000014
 C   -0.661984    0.169749   -0.000036
 O   -0.260726   -0.975528   -0.000176
 O    0.163358    1.239653    0.000064
 H   -2.898036   -1.216460    0.877821
 H   -4.089538   -0.250134    0.000027
 H   -2.898030   -1.216489   -0.877728
 H   -2.257245    1.230270    0.870720
 H   -2.257286    1.230258   -0.870696
 H    1.076193    0.892915    0.000019

 --
0 1
 C   3.065795   -0.234936   -0.668107
 H   3.774407    0.357122   -1.230787
 H   2.356799   -0.836623   -1.220741
 C   3.065694   -0.235076    0.668190
 H   2.356615   -0.836879    1.220591
 H   3.774220    0.356868    1.231099

units angstrom

no_reorient
symmetry c1
}

set globals{
  basis jun-cc-pvtz
}

energy('sapt0')

--------------------------------------------------------------------------

  //              Dimer HF             //
    Molecular point group: c1
  Charge       = 0
  Multiplicity = 1
  Basis Set: JUN-CC-PVTZ
    Blend: JUN-CC-PVTZ
  Basis Set: (JUN-CC-PVTZ AUX)
    Blend: JUN-CC-PVTZ-JKFIT
  @DF-RHF Final Energy:  -345.01872565577241
    Total Energy =                       -345.0187256557724140
  //            Monomer A HF           //
    Molecular point group: c1
  Multiplicity = 1
  Basis Set: JUN-CC-PVTZ
    Blend: JUN-CC-PVTZ
  Basis Set: (JUN-CC-PVTZ AUX)
    Blend: JUN-CC-PVTZ-JKFIT
  @DF-RHF Final Energy:  -266.95239173378747
    Total Energy =                       -266.9523917337874650
  //            Monomer B HF           //
    Molecular point group: c1

    Geometry (in Angstrom), charge = 0, multiplicity = 1:

       Center              X                  Y                   Z               Mass
    ------------   -----------------  -----------------  -----------------  -----------------
      Gh(C)          -3.067052232062    -0.596479448540     0.000038055679    12.000000000000
      Gh(C)          -2.116300232062     0.587171551460     0.000017055679    12.000000000000
      Gh(C)          -0.672311232062     0.166951551460    -0.000032944321    12.000000000000
      Gh(O)          -0.271053232062    -0.978325448540    -0.000172944321    15.994914619570
      Gh(O)           0.153030767938     1.236855551460     0.000067055679    15.994914619570
      Gh(H)          -2.908363232062    -1.219257448540     0.877824055679     1.007825032230
      Gh(H)          -4.099865232062    -0.252931448540     0.000030055679     1.007825032230
      Gh(H)          -2.908357232062    -1.219286448540    -0.877724944321     1.007825032230
      Gh(H)          -2.267572232062     1.227472551460     0.870723055679     1.007825032230
      Gh(H)          -2.267613232062     1.227460551460    -0.870692944321     1.007825032230
      Gh(H)           1.065865767938     0.890117551460     0.000022055679     1.007825032230
         C            3.055467767938    -0.237733448540    -0.668103944321    12.000000000000
         H            3.764079767938     0.354324551460    -1.230783944321     1.007825032230
         H            2.346471767938    -0.839420448540    -1.220737944321     1.007825032230
         C            3.055366767938    -0.237873448540     0.668193055679    12.000000000000
         H            2.346287767938    -0.839676448540     1.220594055679     1.007825032230
         H            3.763892767938     0.354070551460     1.231102055679     1.007825032230

  Charge       = 0
  Multiplicity = 1
  Basis Set: JUN-CC-PVTZ
    Blend: JUN-CC-PVTZ
  Basis Set: (JUN-CC-PVTZ AUX)
    Blend: JUN-CC-PVTZ-JKFIT

    Orbital Energies [Eh]
    ---------------------

    Doubly Occupied:

       1A    -11.231927     2A    -11.230241     3A     -1.033701
       4A     -0.792867     5A     -0.645455     6A     -0.585680
       7A     -0.509730     8A     -0.376227

  @DF-RHF Final Energy:   -78.06424614158325

   => Energetics <=

    Nuclear Repulsion Energy =             33.3695664829801899
    One-Electron Energy =                -170.0559670378660257
    Two-Electron Energy =                  58.6221544133025816
    Total Energy =                        -78.0642461415832543

  Dipole Moment: [D]
     X:     0.0085      Y:    -0.0071      Z:    -0.0000     Total:     0.0110

    SAPT Results
  --------------------------------------------------------------------------------------------------------
    Electrostatics                -10.67884739 [mEh]      -6.70107791 [kcal/mol]     -28.03730996 [kJ/mol]
      Elst10,r                    -10.67884739 [mEh]      -6.70107791 [kcal/mol]     -28.03730996 [kJ/mol]

    Exchange                       12.78596462 [mEh]       8.02331393 [kcal/mol]      33.56954548 [kJ/mol]
      Exch10                       12.78596462 [mEh]       8.02331393 [kcal/mol]      33.56954548 [kJ/mol]
      Exch10(S^2)                  12.67248332 [mEh]       7.95210334 [kcal/mol]      33.27160037 [kJ/mol]

    Induction                      -4.19489763 [mEh]      -2.63233800 [kcal/mol]     -11.01370221 [kJ/mol]
      Ind20,r                      -7.70059289 [mEh]      -4.83219499 [kcal/mol]     -20.21790386 [kJ/mol]
      Exch-Ind20,r                  5.28001088 [mEh]       3.31325685 [kcal/mol]      13.86266666 [kJ/mol]
      delta HF,r (2)               -1.77431562 [mEh]      -1.11339986 [kcal/mol]      -4.65846502 [kJ/mol]

    Dispersion                     -6.14008932 [mEh]      -3.85296422 [kcal/mol]     -16.12080229 [kJ/mol]
      Disp20                       -7.28715752 [mEh]      -4.57276038 [kcal/mol]     -19.13242943 [kJ/mol]
      Exch-Disp20                   1.14706820 [mEh]       0.71979616 [kcal/mol]       3.01162714 [kJ/mol]
      Disp20 (SS)                  -3.64357876 [mEh]      -2.28638019 [kcal/mol]      -9.56621471 [kJ/mol]
      Disp20 (OS)                  -3.64357876 [mEh]      -2.28638019 [kcal/mol]      -9.56621471 [kJ/mol]
      Exch-Disp20 (SS)              0.74740803 [mEh]       0.46900562 [kcal/mol]       1.96231950 [kJ/mol]
      Exch-Disp20 (OS)              0.39966017 [mEh]       0.25079054 [kcal/mol]       1.04930763 [kJ/mol]

  Total HF                         -2.08778040 [mEh]      -1.31010198 [kcal/mol]      -5.48146669 [kJ/mol]
  Total SAPT0                      -8.22786972 [mEh]      -5.16306620 [kcal/mol]     -21.60226898 [kJ/mol]

  Special recipe for scaled SAPT0 (see Manual):
    Electrostatics sSAPT0         -10.67884739 [mEh]      -6.70107791 [kcal/mol]     -28.03730996 [kJ/mol]
    Exchange sSAPT0                12.78596462 [mEh]       8.02331393 [kcal/mol]      33.56954548 [kJ/mol]
    Induction sSAPT0               -4.05177711 [mEh]      -2.54252852 [kcal/mol]     -10.63793933 [kJ/mol]
    Dispersion sSAPT0              -6.10899677 [mEh]      -3.83345335 [kcal/mol]     -16.03916881 [kJ/mol]
  Total sSAPT0                     -8.05365665 [mEh]      -5.05374585 [kcal/mol]     -21.14487262 [kJ/mol]
  --------------------------------------------------------------------------------------------------------

*** Psi4 exiting successfully. Buy a developer a beer!
