                               Psi4 1.3.2 release

  ==> Input File <==

--------------------------------------------------------------------------
# Any line starting with the # character is a comment line
#! Sample  computation

memory 22 gb

molecule Dimer {
0 1
 C  -3.903752   -1.419297    0.184930
 C  -3.394906   -0.105577   -0.380895
 C  -1.966246    0.172100    0.000179
 O  -1.269551   -0.545765    0.687808
 O  -1.535188    1.339064   -0.522843
 H  -3.848590   -1.418822    1.271435
 H  -4.938396   -1.584053   -0.110402
 H  -3.303558   -2.252696   -0.174094
 H  -3.992118    0.740633   -0.036863
 H  -3.450165   -0.086040   -1.470621
 H  -0.607952    1.465066   -0.236371

 --
0 1
 C   1.522949    2.433361    0.035659
 C   1.586281    1.187764    0.524469
 C   2.000344   -0.016311   -0.255423
 C   3.254833   -0.669581    0.327719
 C   3.649043   -1.924461   -0.440400
 H   1.768243    2.638376   -0.999391
 H   1.236218    3.269830    0.658489
 H   1.333325    1.020057    1.567589
 H   1.185281   -0.745956   -0.239031
 H   2.179349    0.260749   -1.297960
 H   4.073835    0.053066    0.314273
 H   3.071737   -0.918242    1.375852
 H   2.845617   -2.661186   -0.412282
 H   3.850571   -1.690486   -1.486403
 H   4.543233   -2.384682   -0.021361

units angstrom

no_reorient
symmetry c1
}

set globals{
  basis jun-cc-pvtz
}

energy('sapt0')

--------------------------------------------------------------------------

  //              Dimer HF             //
    Molecular point group: c1
  Charge       = 0
  Multiplicity = 1
  Basis Set: JUN-CC-PVTZ
    Blend: JUN-CC-PVTZ
  Basis Set: (JUN-CC-PVTZ AUX)
    Blend: JUN-CC-PVTZ-JKFIT
  @DF-RHF Final Energy:  -462.16705567075570
    Total Energy =                       -462.1670556707557580
  //            Monomer A HF           //
    Molecular point group: c1
  Multiplicity = 1
  Basis Set: JUN-CC-PVTZ
    Blend: JUN-CC-PVTZ
  Basis Set: (JUN-CC-PVTZ AUX)
    Blend: JUN-CC-PVTZ-JKFIT
  @DF-RHF Final Energy:  -266.95233795186084
    Total Energy =                       -266.9523379518608408
  //            Monomer B HF           //
    Molecular point group: c1

    Geometry (in Angstrom), charge = 0, multiplicity = 1:

       Center              X                  Y                   Z               Mass
    ------------   -----------------  -----------------  -----------------  -----------------
      Gh(C)          -3.862910692374    -1.448834072373     0.176005421333    12.000000000000
      Gh(C)          -3.354064692374    -0.135114072373    -0.389819578667    12.000000000000
      Gh(C)          -1.925404692374     0.142562927627    -0.008745578667    12.000000000000
      Gh(O)          -1.228709692374    -0.575302072373     0.678883421333    15.994914619570
      Gh(O)          -1.494346692374     1.309526927627    -0.531767578667    15.994914619570
      Gh(H)          -3.807748692374    -1.448359072373     1.262510421333     1.007825032230
      Gh(H)          -4.897554692374    -1.613590072373    -0.119326578667     1.007825032230
      Gh(H)          -3.262716692374    -2.282233072373    -0.183018578667     1.007825032230
      Gh(H)          -3.951276692374     0.711095927627    -0.045787578667     1.007825032230
      Gh(H)          -3.409323692374    -0.115577072373    -1.479545578667     1.007825032230
      Gh(H)          -0.567110692374     1.435528927627    -0.245295578667     1.007825032230
         C            1.563790307626     2.403823927627     0.026734421333    12.000000000000
         C            1.627122307626     1.158226927627     0.515544421333    12.000000000000
         C            2.041185307626    -0.045848072373    -0.264347578667    12.000000000000
         C            3.295674307626    -0.699118072373     0.318794421333    12.000000000000
         C            3.689884307626    -1.953998072373    -0.449324578667    12.000000000000
         H            1.809084307626     2.608838927627    -1.008315578667     1.007825032230
         H            1.277059307626     3.240292927627     0.649564421333     1.007825032230
         H            1.374166307626     0.990519927627     1.558664421333     1.007825032230
         H            1.226122307626    -0.775493072373    -0.247955578667     1.007825032230
         H            2.220190307626     0.231211927627    -1.306884578667     1.007825032230
         H            4.114676307626     0.023528927627     0.305348421333     1.007825032230
         H            3.112578307626    -0.947779072373     1.366927421333     1.007825032230
         H            2.886458307626    -2.690723072373    -0.421206578667     1.007825032230
         H            3.891412307626    -1.720023072373    -1.495327578667     1.007825032230
         H            4.584074307626    -2.414219072373    -0.030285578667     1.007825032230

  Charge       = 0
  Multiplicity = 1
  Basis Set: JUN-CC-PVTZ
    Blend: JUN-CC-PVTZ
  Basis Set: (JUN-CC-PVTZ AUX)
    Blend: JUN-CC-PVTZ-JKFIT

    Orbital Energies [Eh]
    ---------------------

    Doubly Occupied:

       1A    -11.231098     2A    -11.222000     3A    -11.219585
       4A    -11.217490     5A    -11.211418     6A     -1.089749
       7A     -1.021477     8A     -0.922614     9A     -0.811989
      10A     -0.756625    11A     -0.651384    12A     -0.616753
      13A     -0.589304    14A     -0.567167    15A     -0.538655
      16A     -0.510693    17A     -0.483812    18A     -0.473568
      19A     -0.469814    20A     -0.355104

  @DF-RHF Final Energy:  -195.21220616843615

   => Energetics <=

    Nuclear Repulsion Energy =            170.5257163523679935
    One-Electron Energy =                -599.5552457448796986
    Two-Electron Energy =                 233.8173232240755226
    Total Energy =                       -195.2122061684361540

  Dipole Moment: [D]
     X:     0.1649      Y:    -0.4378      Z:     0.0399     Total:     0.4695

    SAPT Results
  --------------------------------------------------------------------------------------------------------
    Electrostatics                -12.35737332 [mEh]      -7.75436883 [kcal/mol]     -32.44427919 [kJ/mol]
      Elst10,r                    -12.35737332 [mEh]      -7.75436883 [kcal/mol]     -32.44427919 [kJ/mol]

    Exchange                       15.08056072 [mEh]       9.46319472 [kcal/mol]      39.59400672 [kJ/mol]
      Exch10                       15.08056072 [mEh]       9.46319472 [kcal/mol]      39.59400672 [kJ/mol]
      Exch10(S^2)                  14.95149668 [mEh]       9.38220582 [kcal/mol]      39.25514913 [kJ/mol]

    Induction                      -5.23473786 [mEh]      -3.28484760 [kcal/mol]     -13.74380235 [kJ/mol]
      Ind20,r                      -9.14594869 [mEh]      -5.73916945 [kcal/mol]     -24.01268497 [kJ/mol]
      Exch-Ind20,r                  6.12315093 [mEh]       3.84233522 [kcal/mol]      16.07633056 [kJ/mol]
      delta HF,r (2)               -2.21194010 [mEh]      -1.38801337 [kcal/mol]      -5.80744794 [kJ/mol]

    Dispersion                     -7.88743654 [mEh]      -4.94944116 [kcal/mol]     -20.70846179 [kJ/mol]
      Disp20                       -9.27569259 [mEh]      -5.82058498 [kcal/mol]     -24.35332754 [kJ/mol]
      Exch-Disp20                   1.38825605 [mEh]       0.87114382 [kcal/mol]       3.64486575 [kJ/mol]
      Disp20 (SS)                  -4.63784630 [mEh]      -2.91029249 [kcal/mol]     -12.17666377 [kJ/mol]
      Disp20 (OS)                  -4.63784630 [mEh]      -2.91029249 [kcal/mol]     -12.17666377 [kJ/mol]
      Exch-Disp20 (SS)              0.90258191 [mEh]       0.56637870 [kcal/mol]       2.36972848 [kJ/mol]
      Exch-Disp20 (OS)              0.48567414 [mEh]       0.30476512 [kcal/mol]       1.27513727 [kJ/mol]

  Total HF                         -2.51155046 [mEh]      -1.57602171 [kcal/mol]      -6.59407482 [kJ/mol]
  Total SAPT0                     -10.39898700 [mEh]      -6.52546286 [kcal/mol]     -27.30253662 [kJ/mol]

  Special recipe for scaled SAPT0 (see Manual):
    Electrostatics sSAPT0         -12.35737332 [mEh]      -7.75436883 [kcal/mol]     -32.44427919 [kJ/mol]
    Exchange sSAPT0                15.08056072 [mEh]       9.46319472 [kcal/mol]      39.59400672 [kJ/mol]
    Induction sSAPT0               -5.07479667 [mEh]      -3.18448299 [kcal/mol]     -13.32387682 [kJ/mol]
    Dispersion sSAPT0              -7.85117428 [mEh]      -4.92668624 [kcal/mol]     -20.61325523 [kJ/mol]
  Total sSAPT0                    -10.20278355 [mEh]      -6.40234334 [kcal/mol]     -26.78740452 [kJ/mol]
  --------------------------------------------------------------------------------------------------------

*** Psi4 exiting successfully. Buy a developer a beer!
