                               Psi4 1.3.2 release

  ==> Input File <==

--------------------------------------------------------------------------
# Any line starting with the # character is a comment line
#! Sample  computation

memory 22 gb

molecule Dimer {
0 1
 C  -1.945795   -0.086261    0.141274
 O  -1.259661   -0.315080    1.115975
 O  -1.596990    0.801432   -0.813961
 H  -0.734398    1.184493   -0.553946
 C  -3.260898   -0.734853   -0.170417
 H  -3.519378   -1.431676    0.618631
 H  -4.029843    0.029051   -0.267743
 H  -3.191330   -1.254321   -1.124428

 --
0 1
 C   0.915808    2.444344    0.315953
 C   1.695191    1.506969   -0.240332
 C   1.969664    0.164739    0.357100
 C   1.675356   -0.979150   -0.614108
 C   1.905575   -2.338167    0.033257
 H   0.435550    2.268527    1.271074
 H   0.760761    3.402743   -0.160937
 H   2.165392    1.720776   -1.197079
 H   3.024666    0.110290    0.645594
 H   1.372352    0.039327    1.262213
 H   0.640513   -0.905355   -0.954500
 H   2.306522   -0.871842   -1.500307
 H   2.936060   -2.433739    0.378210
 H   1.248948   -2.462944    0.894674
 H   1.707983   -3.151874   -0.663928

units angstrom

no_reorient
symmetry c1
}

set globals{
  basis jun-cc-pvtz
}

energy('sapt0')

--------------------------------------------------------------------------

  //              Dimer HF             //
    Molecular point group: c1
  Charge       = 0
  Multiplicity = 1
  Basis Set: JUN-CC-PVTZ
    Blend: JUN-CC-PVTZ
  Basis Set: (JUN-CC-PVTZ AUX)
    Blend: JUN-CC-PVTZ-JKFIT
  @DF-RHF Final Energy:  -423.11725405238155
    Total Energy =                       -423.1172540523815542
  //            Monomer A HF           //
    Molecular point group: c1
  Multiplicity = 1
  Basis Set: JUN-CC-PVTZ
    Blend: JUN-CC-PVTZ
  Basis Set: (JUN-CC-PVTZ AUX)
    Blend: JUN-CC-PVTZ-JKFIT
  @DF-RHF Final Energy:  -227.90404953809457
    Total Energy =                       -227.9040495380945686
  //            Monomer B HF           //
    Molecular point group: c1

    Geometry (in Angstrom), charge = 0, multiplicity = 1:

       Center              X                  Y                   Z               Mass
    ------------   -----------------  -----------------  -----------------  -----------------
      Gh(C)          -1.906831055894    -0.114890434253     0.130971437374    12.000000000000
      Gh(O)          -1.220697055894    -0.343709434253     1.105672437374    15.994914619570
      Gh(O)          -1.558026055894     0.772802565747    -0.824263562626    15.994914619570
      Gh(H)          -0.695434055894     1.155863565747    -0.564248562626     1.007825032230
      Gh(C)          -3.221934055894    -0.763482434253    -0.180719562626    12.000000000000
      Gh(H)          -3.480414055894    -1.460305434253     0.608328437374     1.007825032230
      Gh(H)          -3.990879055894     0.000421565747    -0.278045562626     1.007825032230
      Gh(H)          -3.152366055894    -1.282950434253    -1.134730562626     1.007825032230
         C            0.954771944106     2.415714565747     0.305650437374    12.000000000000
         C            1.734154944106     1.478339565747    -0.250634562626    12.000000000000
         C            2.008627944106     0.136109565747     0.346797437374    12.000000000000
         C            1.714319944106    -1.007779434253    -0.624410562626    12.000000000000
         C            1.944538944106    -2.366796434253     0.022954437374    12.000000000000
         H            0.474513944106     2.239897565747     1.260771437374     1.007825032230
         H            0.799724944106     3.374113565747    -0.171239562626     1.007825032230
         H            2.204355944106     1.692146565747    -1.207381562626     1.007825032230
         H            3.063629944106     0.081660565747     0.635291437374     1.007825032230
         H            1.411315944106     0.010697565747     1.251910437374     1.007825032230
         H            0.679476944106    -0.933984434253    -0.964802562626     1.007825032230
         H            2.345485944106    -0.900471434253    -1.510609562626     1.007825032230
         H            2.975023944106    -2.462368434253     0.367907437374     1.007825032230
         H            1.287911944106    -2.491573434253     0.884371437374     1.007825032230
         H            1.746946944106    -3.180503434253    -0.674230562626     1.007825032230

  Charge       = 0
  Multiplicity = 1
  Basis Set: JUN-CC-PVTZ
    Blend: JUN-CC-PVTZ
  Basis Set: (JUN-CC-PVTZ AUX)
    Blend: JUN-CC-PVTZ-JKFIT

    Orbital Energies [Eh]
    ---------------------

    Doubly Occupied:

       1A    -11.231366     2A    -11.222078     3A    -11.219472
       4A    -11.217494     5A    -11.211537     6A     -1.089500
       7A     -1.022039     8A     -0.922384     9A     -0.811277
      10A     -0.757189    11A     -0.649924    12A     -0.617937
      13A     -0.590526    14A     -0.566597    15A     -0.538512
      16A     -0.511157    17A     -0.482276    18A     -0.475023
      19A     -0.469481    20A     -0.355018

  @DF-RHF Final Energy:  -195.21201419816248

   => Energetics <=

    Nuclear Repulsion Energy =            170.3463075326368141
    One-Electron Energy =                -599.1950745794649720
    Two-Electron Energy =                 233.6367528486656511
    Total Energy =                       -195.2120141981624784

  Dipole Moment: [D]
     X:     0.1847      Y:    -0.4246      Z:    -0.0823     Total:     0.4703

    SAPT Results
  --------------------------------------------------------------------------------------------------------
    Electrostatics                -12.84363984 [mEh]      -8.05950567 [kcal/mol]     -33.72097174 [kJ/mol]
      Elst10,r                    -12.84363984 [mEh]      -8.05950567 [kcal/mol]     -33.72097174 [kJ/mol]

    Exchange                       17.20589341 [mEh]      10.79686112 [kcal/mol]      45.17406693 [kJ/mol]
      Exch10                       17.20589341 [mEh]      10.79686112 [kcal/mol]      45.17406693 [kJ/mol]
      Exch10(S^2)                  17.06968537 [mEh]      10.71138928 [kcal/mol]      44.81645276 [kJ/mol]

    Induction                      -5.55256970 [mEh]      -3.48429009 [kcal/mol]     -14.57826974 [kJ/mol]
      Ind20,r                     -10.26146767 [mEh]      -6.43916818 [kcal/mol]     -26.94147966 [kJ/mol]
      Exch-Ind20,r                  7.06038607 [mEh]       4.43045915 [kcal/mol]      18.53704109 [kJ/mol]
      delta HF,r (2)               -2.35148810 [mEh]      -1.47558106 [kcal/mol]      -6.17383116 [kJ/mol]

    Dispersion                    -10.10670726 [mEh]      -6.34205455 [kcal/mol]     -26.53515625 [kJ/mol]
      Disp20                      -11.76676195 [mEh]      -7.38375460 [kcal/mol]     -30.89362924 [kJ/mol]
      Exch-Disp20                   1.66005469 [mEh]       1.04170005 [kcal/mol]       4.35847300 [kJ/mol]
      Disp20 (SS)                  -5.88338097 [mEh]      -3.69187730 [kcal/mol]     -15.44681462 [kJ/mol]
      Disp20 (OS)                  -5.88338097 [mEh]      -3.69187730 [kcal/mol]     -15.44681462 [kJ/mol]
      Exch-Disp20 (SS)              1.06955338 [mEh]       0.67115488 [kcal/mol]       2.80811202 [kJ/mol]
      Exch-Disp20 (OS)              0.59050131 [mEh]       0.37054517 [kcal/mol]       1.55036098 [kJ/mol]

  Total HF                         -1.19031612 [mEh]      -0.74693464 [kcal/mol]      -3.12517455 [kJ/mol]
  Total SAPT0                     -11.29702338 [mEh]      -7.08898920 [kcal/mol]     -29.66033080 [kJ/mol]

  Special recipe for scaled SAPT0 (see Manual):
    Electrostatics sSAPT0         -12.84363984 [mEh]      -8.05950567 [kcal/mol]     -33.72097174 [kJ/mol]
    Exchange sSAPT0                17.20589341 [mEh]      10.79686112 [kcal/mol]      45.17406693 [kJ/mol]
    Induction sSAPT0               -5.38220179 [mEh]      -3.37738261 [kcal/mol]     -14.13096885 [kJ/mol]
    Dispersion sSAPT0             -10.06664995 [mEh]      -6.31691821 [kcal/mol]     -26.42998580 [kJ/mol]
  Total sSAPT0                    -11.08659817 [mEh]      -6.95694538 [kcal/mol]     -29.10785947 [kJ/mol]
  --------------------------------------------------------------------------------------------------------

*** Psi4 exiting successfully. Buy a developer a beer!
