                               Psi4 1.3.2 release

  ==> Input File <==

--------------------------------------------------------------------------
# Any line starting with the # character is a comment line
#! Sample  computation

memory 22 gb

molecule Dimer {
0 1
 C  -2.034948   -1.247076   -0.010494
 O  -2.109254   -0.254445   -0.906156
 O  -1.337172   -1.253846    0.977017
 H  -2.700678   -2.063705   -0.303391
 H  -1.508296    0.462312   -0.610458

 --
0 1
 C   -0.670025    2.277569    0.381301
 C    0.469300    1.833908   -0.167483
 C    1.327341    0.753569    0.407336
 C    1.639601   -0.347821   -0.606340
 C    2.472156   -1.461991    0.013625
 H   -1.033124    1.862889    1.314114
 H   -1.243735    3.071651   -0.077250
 H    0.806395    2.280184   -1.099857
 H    2.272996    1.190598    0.744752
 H    0.834640    0.320733    1.280237
 H    0.704812   -0.759833   -0.991802
 H    2.167148    0.086672   -1.459548
 H    3.414163   -1.071844    0.401329
 H    1.932321   -1.923085    0.841041
 H    2.704224   -2.239198   -0.713735

units angstrom

no_reorient
symmetry c1
}

set globals{
  basis jun-cc-pvtz
}

energy('sapt0')

--------------------------------------------------------------------------

  //              Dimer HF             //
    Molecular point group: c1
  Charge       = 0
  Multiplicity = 1
  Basis Set: JUN-CC-PVTZ
    Blend: JUN-CC-PVTZ
  Basis Set: (JUN-CC-PVTZ AUX)
    Blend: JUN-CC-PVTZ-JKFIT
  @DF-RHF Final Energy:  -384.05636105523604
    Total Energy =                       -384.0563610552360387
  //            Monomer A HF           //
    Molecular point group: c1
  Multiplicity = 1
  Basis Set: JUN-CC-PVTZ
    Blend: JUN-CC-PVTZ
  Basis Set: (JUN-CC-PVTZ AUX)
    Blend: JUN-CC-PVTZ-JKFIT
  @DF-RHF Final Energy:  -188.84247120964494
    Total Energy =                       -188.8424712096449412
  //            Monomer B HF           //
    Molecular point group: c1

    Geometry (in Angstrom), charge = 0, multiplicity = 1:

       Center              X                  Y                   Z               Mass
    ------------   -----------------  -----------------  -----------------  -----------------
      Gh(C)          -1.963723739342    -1.236736999181    -0.016256298736    12.000000000000
      Gh(O)          -2.038029739342    -0.244105999181    -0.911918298736    15.994914619570
      Gh(O)          -1.265947739342    -1.243506999181     0.971254701264    15.994914619570
      Gh(H)          -2.629453739342    -2.053365999181    -0.309153298736     1.007825032230
      Gh(H)          -1.437071739342     0.472651000819    -0.616220298736     1.007825032230
         C           -0.598800739342     2.287908000819     0.375538701264    12.000000000000
         C            0.540524260658     1.844247000819    -0.173245298736    12.000000000000
         C            1.398565260658     0.763908000819     0.401573701264    12.000000000000
         C            1.710825260658    -0.337481999181    -0.612102298736    12.000000000000
         C            2.543380260658    -1.451651999181     0.007862701264    12.000000000000
         H           -0.961899739342     1.873228000819     1.308351701264     1.007825032230
         H           -1.172510739342     3.081990000819    -0.083012298736     1.007825032230
         H            0.877619260658     2.290523000819    -1.105619298736     1.007825032230
         H            2.344220260658     1.200937000819     0.738989701264     1.007825032230
         H            0.905864260658     0.331072000819     1.274474701264     1.007825032230
         H            0.776036260658    -0.749493999181    -0.997564298736     1.007825032230
         H            2.238372260658     0.097011000819    -1.465310298736     1.007825032230
         H            3.485387260658    -1.061504999181     0.395566701264     1.007825032230
         H            2.003545260658    -1.912745999181     0.835278701264     1.007825032230
         H            2.775448260658    -2.228858999181    -0.719497298736     1.007825032230

  Charge       = 0
  Multiplicity = 1
  Basis Set: JUN-CC-PVTZ
    Blend: JUN-CC-PVTZ
  Basis Set: (JUN-CC-PVTZ AUX)
    Blend: JUN-CC-PVTZ-JKFIT

    Orbital Energies [Eh]
    ---------------------

    Doubly Occupied:

       1A    -11.231409     2A    -11.222109     3A    -11.219491
       4A    -11.217510     5A    -11.211514     6A     -1.089463
       7A     -1.022045     8A     -0.922438     9A     -0.811308
      10A     -0.757254    11A     -0.649729    12A     -0.617986
      13A     -0.590579    14A     -0.566658    15A     -0.538663
      16A     -0.511037    17A     -0.482313    18A     -0.475113
      19A     -0.469436    20A     -0.354948

  @DF-RHF Final Energy:  -195.21199530296354

   => Energetics <=

    Nuclear Repulsion Energy =            170.3178139569387781
    One-Electron Energy =                -599.1376085654667349
    Two-Electron Energy =                 233.6077993055644129
    Total Energy =                       -195.2119953029635440

  Dipole Moment: [D]
     X:     0.3680      Y:    -0.2829      Z:    -0.0824     Total:     0.4714

    SAPT Results
  --------------------------------------------------------------------------------------------------------
    Electrostatics                -13.30279241 [mEh]      -8.34762827 [kcal/mol]     -34.92647667 [kJ/mol]
      Elst10,r                    -13.30279241 [mEh]      -8.34762827 [kcal/mol]     -34.92647667 [kJ/mol]

    Exchange                       17.47049445 [mEh]      10.96290078 [kcal/mol]      45.86877686 [kJ/mol]
      Exch10                       17.47049445 [mEh]      10.96290078 [kcal/mol]      45.86877686 [kJ/mol]
      Exch10(S^2)                  17.31963074 [mEh]      10.86823237 [kcal/mol]      45.47268423 [kJ/mol]

    Induction                      -6.06224467 [mEh]      -3.80411596 [kcal/mol]     -15.91642118 [kJ/mol]
      Ind20,r                     -10.94134725 [mEh]      -6.86579905 [kcal/mol]     -28.72650324 [kJ/mol]
      Exch-Ind20,r                  7.42839159 [mEh]       4.66138610 [kcal/mol]      19.50323944 [kJ/mol]
      delta HF,r (2)               -2.54928901 [mEh]      -1.59970300 [kcal/mol]      -6.69315737 [kJ/mol]

    Dispersion                     -9.63408707 [mEh]      -6.04548090 [kcal/mol]     -25.29429211 [kJ/mol]
      Disp20                      -11.25096489 [mEh]      -7.06008706 [kcal/mol]     -29.53940424 [kJ/mol]
      Exch-Disp20                   1.61687782 [mEh]       1.01460615 [kcal/mol]       4.24511214 [kJ/mol]
      Disp20 (SS)                  -5.62548244 [mEh]      -3.53004353 [kcal/mol]     -14.76970212 [kJ/mol]
      Disp20 (OS)                  -5.62548244 [mEh]      -3.53004353 [kcal/mol]     -14.76970212 [kJ/mol]
      Exch-Disp20 (SS)              1.04508224 [mEh]       0.65579900 [kcal/mol]       2.74386303 [kJ/mol]
      Exch-Disp20 (OS)              0.57179559 [mEh]       0.35880715 [kcal/mol]       1.50124910 [kJ/mol]

  Total HF                         -1.89454263 [mEh]      -1.18884345 [kcal/mol]      -4.97412098 [kJ/mol]
  Total SAPT0                     -11.52862969 [mEh]      -7.23432435 [kcal/mol]     -30.26841309 [kJ/mol]

  Special recipe for scaled SAPT0 (see Manual):
    Electrostatics sSAPT0         -13.30279241 [mEh]      -8.34762827 [kcal/mol]     -34.92647667 [kJ/mol]
    Exchange sSAPT0                17.47049445 [mEh]      10.96290078 [kcal/mol]      45.86877686 [kJ/mol]
    Induction sSAPT0               -5.86643250 [mEh]      -3.68124197 [kcal/mol]     -15.40231641 [kJ/mol]
    Dispersion sSAPT0              -9.59146622 [mEh]      -6.01873592 [kcal/mol]     -25.18239109 [kJ/mol]
  Total sSAPT0                    -11.29019668 [mEh]      -7.08470538 [kcal/mol]     -29.64240731 [kJ/mol]
  --------------------------------------------------------------------------------------------------------

*** Psi4 exiting successfully. Buy a developer a beer!
