                               Psi4 1.3.2 release

  ==> Input File <==

--------------------------------------------------------------------------
# Any line starting with the # character is a comment line
#! Sample  computation

memory 22 gb

molecule Dimer {
0 1
 C   2.114912   -0.013676   -0.049896
 O   1.415108    1.096836   -0.312864
 O   1.656165   -1.058011    0.350571
 H   3.175735    0.158575   -0.251676
 H   0.471932    0.914808   -0.115610

 --
0 1
 C   -1.796490    1.239140    0.096435
 C   -1.607893   -0.029887    0.480178
 C   -1.697725   -1.214860   -0.423868
 H   -1.726940    2.056140    0.801494
 H   -2.041900    1.480660   -0.930465
 H   -1.366923   -0.227839    1.519735
 H   -2.470104   -1.901839   -0.075641
 H   -1.935656   -0.915291   -1.443706
 H   -0.753157   -1.760114   -0.422879

units angstrom

no_reorient
symmetry c1
}

set globals{
  basis jun-cc-pvtz
}

energy('sapt0')

--------------------------------------------------------------------------

  //              Dimer HF             //
    Molecular point group: c1
  Charge       = 0
  Multiplicity = 1
  Basis Set: JUN-CC-PVTZ
    Blend: JUN-CC-PVTZ
  Basis Set: (JUN-CC-PVTZ AUX)
    Blend: JUN-CC-PVTZ-JKFIT
  @DF-RHF Final Energy:  -305.96260937262582
    Total Energy =                       -305.9626093726258205
  //            Monomer A HF           //
    Molecular point group: c1
  Multiplicity = 1
  Basis Set: JUN-CC-PVTZ
    Blend: JUN-CC-PVTZ
  Basis Set: (JUN-CC-PVTZ AUX)
    Blend: JUN-CC-PVTZ-JKFIT
  @DF-RHF Final Energy:  -188.84247439370066
    Total Energy =                       -188.8424743937006554
  //            Monomer B HF           //
    Molecular point group: c1

    Geometry (in Angstrom), charge = 0, multiplicity = 1:

       Center              X                  Y                   Z               Mass
    ------------   -----------------  -----------------  -----------------  -----------------
      Gh(C)           2.040190934891    -0.015869936754    -0.060246322167    12.000000000000
      Gh(O)           1.340386934891     1.094642063246    -0.323214322167    15.994914619570
      Gh(O)           1.581443934891    -1.060204936754     0.340220677833    15.994914619570
      Gh(H)           3.101013934891     0.156381063246    -0.262026322167     1.007825032230
      Gh(H)           0.397210934891     0.912614063246    -0.125960322167     1.007825032230
         C           -1.871211065109     1.236946063246     0.086084677833    12.000000000000
         C           -1.682614065109    -0.032080936754     0.469827677833    12.000000000000
         C           -1.772446065109    -1.217053936754    -0.434218322167    12.000000000000
         H           -1.801661065109     2.053946063246     0.791143677833     1.007825032230
         H           -2.116621065109     1.478466063246    -0.940815322167     1.007825032230
         H           -1.441644065109    -0.230032936754     1.509384677833     1.007825032230
         H           -2.544825065109    -1.904032936754    -0.085991322167     1.007825032230
         H           -2.010377065109    -0.917484936754    -1.454056322167     1.007825032230
         H           -0.827878065109    -1.762307936754    -0.433229322167     1.007825032230

  Charge       = 0
  Multiplicity = 1
  Basis Set: JUN-CC-PVTZ
    Blend: JUN-CC-PVTZ
  Basis Set: (JUN-CC-PVTZ AUX)
    Blend: JUN-CC-PVTZ-JKFIT

    Orbital Energies [Eh]
    ---------------------

    Doubly Occupied:

       1A    -11.234750     2A    -11.220831     3A    -11.217868
       4A     -1.064490     5A     -0.932991     6A     -0.757866
       7A     -0.639340     8A     -0.582866     9A     -0.569761
      10A     -0.523300    11A     -0.493104    12A     -0.356990

  @DF-RHF Final Energy:  -117.11675815161695

   => Energetics <=

    Nuclear Repulsion Energy =             70.8313313843634091
    One-Electron Energy =                -296.7078639331038517
    Two-Electron Energy =                 108.7597743971234934
    Total Energy =                       -117.1167581516169491

  Dipole Moment: [D]
     X:     0.0191      Y:    -0.4364      Z:    -0.0226     Total:     0.4374

    SAPT Results
  --------------------------------------------------------------------------------------------------------
    Electrostatics                -12.92459226 [mEh]      -8.11030409 [kcal/mol]     -33.93351231 [kJ/mol]
      Elst10,r                    -12.92459226 [mEh]      -8.11030409 [kcal/mol]     -33.93351231 [kJ/mol]

    Exchange                       15.31307574 [mEh]       9.60910010 [kcal/mol]      40.20447483 [kJ/mol]
      Exch10                       15.31307574 [mEh]       9.60910010 [kcal/mol]      40.20447483 [kJ/mol]
      Exch10(S^2)                  15.17868688 [mEh]       9.52476982 [kcal/mol]      39.85163691 [kJ/mol]

    Induction                      -5.76531079 [mEh]      -3.61778714 [kcal/mol]     -15.13682139 [kJ/mol]
      Ind20,r                      -9.82797328 [mEh]      -6.16714634 [kcal/mol]     -25.80334030 [kJ/mol]
      Exch-Ind20,r                  6.45222463 [mEh]       4.04883208 [kcal/mol]      16.94031344 [kJ/mol]
      delta HF,r (2)               -2.38956214 [mEh]      -1.49947288 [kcal/mol]      -6.27379453 [kJ/mol]

    Dispersion                     -7.18673857 [mEh]      -4.50974654 [kcal/mol]     -18.86877952 [kJ/mol]
      Disp20                       -8.51375649 [mEh]      -5.34246286 [kcal/mol]     -22.35286459 [kJ/mol]
      Exch-Disp20                   1.32701792 [mEh]       0.83271632 [kcal/mol]       3.48408507 [kJ/mol]
      Disp20 (SS)                  -4.25687825 [mEh]      -2.67123143 [kcal/mol]     -11.17643230 [kJ/mol]
      Disp20 (OS)                  -4.25687825 [mEh]      -2.67123143 [kcal/mol]     -11.17643230 [kJ/mol]
      Exch-Disp20 (SS)              0.86506016 [mEh]       0.54283345 [kcal/mol]       2.27121515 [kJ/mol]
      Exch-Disp20 (OS)              0.46195776 [mEh]       0.28988287 [kcal/mol]       1.21286992 [kJ/mol]

  Total HF                         -3.37682731 [mEh]      -2.11899113 [kcal/mol]      -8.86585888 [kJ/mol]
  Total SAPT0                     -10.56356588 [mEh]      -6.62873767 [kcal/mol]     -27.73463840 [kJ/mol]

  Special recipe for scaled SAPT0 (see Manual):
    Electrostatics sSAPT0         -12.92459226 [mEh]      -8.11030409 [kcal/mol]     -33.93351231 [kJ/mol]
    Exchange sSAPT0                15.31307574 [mEh]       9.60910010 [kcal/mol]      40.20447483 [kJ/mol]
    Induction sSAPT0               -5.59240908 [mEh]      -3.50928968 [kcal/mol]     -14.68286801 [kJ/mol]
    Dispersion sSAPT0              -7.15117817 [mEh]      -4.48743205 [kcal/mol]     -18.77541571 [kJ/mol]
  Total sSAPT0                    -10.35510377 [mEh]      -6.49792572 [kcal/mol]     -27.18732120 [kJ/mol]
  --------------------------------------------------------------------------------------------------------

*** Psi4 exiting successfully. Buy a developer a beer!
