                               Psi4 1.3.2 release

  ==> Input File <==

--------------------------------------------------------------------------
# Any line starting with the # character is a comment line
#! Sample  computation

memory 22 gb

molecule Dimer {
0 1
 C   -1.531399   -0.009779    0.128695
 O   -1.027102    0.480606    1.117251
 O   -0.840150   -0.754416   -0.760663
 H    0.084608   -0.800320   -0.443778
 C   -2.970469    0.120255   -0.271294
 H   -3.497657    0.725247    0.457369
 H   -3.034254    0.575580   -1.257707
 H   -3.419646   -0.868899   -0.336454

 --
0 1
 C   2.092801   -1.054718    0.611572
 C   2.380026   -0.176207   -0.357447
 C   2.042204    1.279504   -0.304856
 H   2.373885   -2.095181    0.523707
 H   1.577752   -0.740084    1.510751
 H   2.896511   -0.531342   -1.243811
 H   1.447786    1.571211   -1.172472
 H   1.478526    1.517897    0.595153
 H   2.951526    1.882046   -0.325471

units angstrom

no_reorient
symmetry c1
}

set globals{
  basis jun-cc-pvtz
}

energy('sapt0')

--------------------------------------------------------------------------

  //              Dimer HF             //
    Molecular point group: c1
  Charge       = 0
  Multiplicity = 1
  Basis Set: JUN-CC-PVTZ
    Blend: JUN-CC-PVTZ
  Basis Set: (JUN-CC-PVTZ AUX)
    Blend: JUN-CC-PVTZ-JKFIT
  @DF-RHF Final Energy:  -345.02279237823410
    Total Energy =                       -345.0227923782341009
  //            Monomer A HF           //
    Molecular point group: c1
  Multiplicity = 1
  Basis Set: JUN-CC-PVTZ
    Blend: JUN-CC-PVTZ
  Basis Set: (JUN-CC-PVTZ AUX)
    Blend: JUN-CC-PVTZ-JKFIT
  @DF-RHF Final Energy:  -227.90403277347934
    Total Energy =                       -227.9040327734793436
  //            Monomer B HF           //
    Molecular point group: c1

    Geometry (in Angstrom), charge = 0, multiplicity = 1:

       Center              X                  Y                   Z               Mass
    ------------   -----------------  -----------------  -----------------  -----------------
      Gh(C)          -1.503700122264     0.002223573425     0.112258165999    12.000000000000
      Gh(O)          -0.999403122264     0.492608573425     1.100814165999    15.994914619570
      Gh(O)          -0.812451122264    -0.742413426575    -0.777099834001    15.994914619570
      Gh(H)           0.112306877736    -0.788317426575    -0.460214834001     1.007825032230
      Gh(C)          -2.942770122264     0.132257573425    -0.287730834001    12.000000000000
      Gh(H)          -3.469958122264     0.737249573425     0.440932165999     1.007825032230
      Gh(H)          -3.006555122264     0.587582573425    -1.274143834001     1.007825032230
      Gh(H)          -3.391947122264    -0.856896426575    -0.352890834001     1.007825032230
         C            2.120499877736    -1.042715426575     0.595135165999    12.000000000000
         C            2.407724877736    -0.164204426575    -0.373883834001    12.000000000000
         C            2.069902877736     1.291506573425    -0.321292834001    12.000000000000
         H            2.401583877736    -2.083178426575     0.507270165999     1.007825032230
         H            1.605450877736    -0.728081426575     1.494314165999     1.007825032230
         H            2.924209877736    -0.519339426575    -1.260247834001     1.007825032230
         H            1.475484877736     1.583213573425    -1.188908834001     1.007825032230
         H            1.506224877736     1.529899573425     0.578716165999     1.007825032230
         H            2.979224877736     1.894048573425    -0.341907834001     1.007825032230

  Charge       = 0
  Multiplicity = 1
  Basis Set: JUN-CC-PVTZ
    Blend: JUN-CC-PVTZ
  Basis Set: (JUN-CC-PVTZ AUX)
    Blend: JUN-CC-PVTZ-JKFIT

    Orbital Energies [Eh]
    ---------------------

    Doubly Occupied:

       1A    -11.234920     2A    -11.220921     3A    -11.217936
       4A     -1.064261     5A     -0.932688     6A     -0.757863
       7A     -0.639645     8A     -0.582441     9A     -0.568623
      10A     -0.523448    11A     -0.493560    12A     -0.357093

  @DF-RHF Final Energy:  -117.11673149128764

   => Energetics <=

    Nuclear Repulsion Energy =             70.8160549882434225
    One-Electron Energy =                -296.6787748000461988
    Two-Electron Energy =                 108.7459883205151385
    Total Energy =                       -117.1167314912876378

  Dipole Moment: [D]
     X:     0.0354      Y:     0.3793      Z:    -0.2054     Total:     0.4328

    SAPT Results
  --------------------------------------------------------------------------------------------------------
    Electrostatics                -12.04149010 [mEh]      -7.55614912 [kcal/mol]     -31.61492790 [kJ/mol]
      Elst10,r                    -12.04149010 [mEh]      -7.55614912 [kcal/mol]     -31.61492790 [kJ/mol]

    Exchange                       15.27972170 [mEh]       9.58817013 [kcal/mol]      40.11690381 [kJ/mol]
      Exch10                       15.27972170 [mEh]       9.58817013 [kcal/mol]      40.11690381 [kJ/mol]
      Exch10(S^2)                  15.14468319 [mEh]       9.50343218 [kcal/mol]      39.76236023 [kJ/mol]

    Induction                      -5.26634507 [mEh]      -3.30468143 [kcal/mol]     -13.82678708 [kJ/mol]
      Ind20,r                      -9.14868337 [mEh]      -5.74088549 [kcal/mol]     -24.01986487 [kJ/mol]
      Exch-Ind20,r                  6.13200009 [mEh]       3.84788815 [kcal/mol]      16.09956401 [kJ/mol]
      delta HF,r (2)               -2.24966179 [mEh]      -1.41168409 [kcal/mol]      -5.90648622 [kJ/mol]

    Dispersion                     -7.84136465 [mEh]      -4.92053060 [kcal/mol]     -20.58750005 [kJ/mol]
      Disp20                       -9.21190966 [mEh]      -5.78056058 [kcal/mol]     -24.18586547 [kJ/mol]
      Exch-Disp20                   1.37054501 [mEh]       0.86002998 [kcal/mol]       3.59836542 [kJ/mol]
      Disp20 (SS)                  -4.60595483 [mEh]      -2.89028029 [kcal/mol]     -12.09293274 [kJ/mol]
      Disp20 (OS)                  -4.60595483 [mEh]      -2.89028029 [kcal/mol]     -12.09293274 [kJ/mol]
      Exch-Disp20 (SS)              0.89040261 [mEh]       0.55873607 [kcal/mol]       2.33775174 [kJ/mol]
      Exch-Disp20 (OS)              0.48014240 [mEh]       0.30129390 [kcal/mol]       1.26061368 [kJ/mol]

  Total HF                         -2.02811347 [mEh]      -1.27266041 [kcal/mol]      -5.32481117 [kJ/mol]
  Total SAPT0                      -9.86947812 [mEh]      -6.19319102 [kcal/mol]     -25.91231123 [kJ/mol]

  Special recipe for scaled SAPT0 (see Manual):
    Electrostatics sSAPT0         -12.04149010 [mEh]      -7.55614912 [kcal/mol]     -31.61492790 [kJ/mol]
    Exchange sSAPT0                15.27972170 [mEh]       9.58817013 [kcal/mol]      40.11690381 [kJ/mol]
    Induction sSAPT0               -5.10084906 [mEh]      -3.20083111 [kcal/mol]     -13.39227736 [kJ/mol]
    Dispersion sSAPT0              -7.80437513 [mEh]      -4.89731933 [kcal/mol]     -20.49038408 [kJ/mol]
  Total sSAPT0                     -9.66699258 [mEh]      -6.06612943 [kcal/mol]     -25.38068553 [kJ/mol]
  --------------------------------------------------------------------------------------------------------

*** Psi4 exiting successfully. Buy a developer a beer!
