                               Psi4 1.3.2 release

  ==> Input File <==

--------------------------------------------------------------------------
# Any line starting with the # character is a comment line
#! Sample  computation

memory 22 gb

molecule Dimer {
0 1
 C   3.453296    0.610396   -0.070793
 C   2.523373   -0.554852    0.216221
 C   1.078575   -0.213887   -0.027557
 O   0.665178    0.858589   -0.417900
 O   0.272558   -1.261582    0.243810
 H   3.209620    1.463227    0.559241
 H   4.487127    0.325281    0.115561
 H   3.362660    0.930584   -1.106547
 H   2.607111   -0.894074    1.250063
 H   2.760130   -1.422325   -0.402253
 H  -0.646404   -0.980645    0.058432

 --
0 1
 C   -2.965757   -1.072060   -0.134101
 C   -2.646739    0.187088   -0.458665
 C   -2.597128    1.327407    0.504061
 H   -2.990715   -1.855684   -0.878848
 H   -3.222256   -1.337713    0.884079
 H   -2.396178    0.410626   -1.490580
 H   -3.295105    2.110463    0.204734
 H   -2.852861    1.003300    1.512115
 H   -1.598737    1.766353    0.511731

units angstrom

no_reorient
symmetry c1
}

set globals{
  basis jun-cc-pvtz
}

energy('sapt0')

--------------------------------------------------------------------------

  //              Dimer HF             //
    Molecular point group: c1
  Charge       = 0
  Multiplicity = 1
  Basis Set: JUN-CC-PVTZ
    Blend: JUN-CC-PVTZ
  Basis Set: (JUN-CC-PVTZ AUX)
    Blend: JUN-CC-PVTZ-JKFIT
  @DF-RHF Final Energy:  -384.07180202788078
    Total Energy =                       -384.0718020278807785
  //            Monomer A HF           //
    Molecular point group: c1
  Multiplicity = 1
  Basis Set: JUN-CC-PVTZ
    Blend: JUN-CC-PVTZ
  Basis Set: (JUN-CC-PVTZ AUX)
    Blend: JUN-CC-PVTZ-JKFIT
  @DF-RHF Final Energy:  -266.95232735884133
    Total Energy =                       -266.9523273588413304
  //            Monomer B HF           //
    Molecular point group: c1

    Geometry (in Angstrom), charge = 0, multiplicity = 1:

       Center              X                  Y                   Z               Mass
    ------------   -----------------  -----------------  -----------------  -----------------
      Gh(C)           3.448417322287     0.623364676428    -0.060392697312    12.000000000000
      Gh(C)           2.518494322287    -0.541883323572     0.226621302688    12.000000000000
      Gh(C)           1.073696322287    -0.200918323572    -0.017156697312    12.000000000000
      Gh(O)           0.660299322287     0.871557676428    -0.407499697312    15.994914619570
      Gh(O)           0.267679322287    -1.248613323572     0.254210302688    15.994914619570
      Gh(H)           3.204741322287     1.476195676428     0.569641302688     1.007825032230
      Gh(H)           4.482248322287     0.338249676428     0.125961302688     1.007825032230
      Gh(H)           3.357781322287     0.943552676428    -1.096146697312     1.007825032230
      Gh(H)           2.602232322287    -0.881105323572     1.260463302688     1.007825032230
      Gh(H)           2.755251322287    -1.409356323572    -0.391852697312     1.007825032230
      Gh(H)          -0.651282677713    -0.967676323572     0.068832302688     1.007825032230
         C           -2.970635677713    -1.059091323572    -0.123700697312    12.000000000000
         C           -2.651617677713     0.200056676428    -0.448264697312    12.000000000000
         C           -2.602006677713     1.340375676428     0.514461302688    12.000000000000
         H           -2.995593677713    -1.842715323572    -0.868447697312     1.007825032230
         H           -3.227134677713    -1.324744323572     0.894479302688     1.007825032230
         H           -2.401056677713     0.423594676428    -1.480179697312     1.007825032230
         H           -3.299983677713     2.123431676428     0.215134302688     1.007825032230
         H           -2.857739677713     1.016268676428     1.522515302688     1.007825032230
         H           -1.603615677713     1.779321676428     0.522131302688     1.007825032230

  Charge       = 0
  Multiplicity = 1
  Basis Set: JUN-CC-PVTZ
    Blend: JUN-CC-PVTZ
  Basis Set: (JUN-CC-PVTZ AUX)
    Blend: JUN-CC-PVTZ-JKFIT

    Orbital Energies [Eh]
    ---------------------

    Doubly Occupied:

       1A    -11.234675     2A    -11.220825     3A    -11.217810
       4A     -1.064546     5A     -0.932970     6A     -0.757867
       7A     -0.639358     8A     -0.582885     9A     -0.569801
      10A     -0.523269    11A     -0.493060    12A     -0.357040

  @DF-RHF Final Energy:  -117.11677604291616

   => Energetics <=

    Nuclear Repulsion Energy =             70.8371438172278403
    One-Electron Energy =                -296.7196265141885760
    Two-Electron Energy =                 108.7657066540445641
    Total Energy =                       -117.1167760429161575

  Dipole Moment: [D]
     X:     0.0710      Y:     0.4287      Z:     0.0441     Total:     0.4368

    SAPT Results
  --------------------------------------------------------------------------------------------------------
    Electrostatics                -12.32698877 [mEh]      -7.73530223 [kcal/mol]     -32.36450455 [kJ/mol]
      Elst10,r                    -12.32698877 [mEh]      -7.73530223 [kcal/mol]     -32.36450455 [kJ/mol]

    Exchange                       14.84564686 [mEh]       9.31578405 [kcal/mol]      38.97724046 [kJ/mol]
      Exch10                       14.84564686 [mEh]       9.31578405 [kcal/mol]      38.97724046 [kJ/mol]
      Exch10(S^2)                  14.72242285 [mEh]       9.23845982 [kcal/mol]      38.65371587 [kJ/mol]

    Induction                      -5.21728422 [mEh]      -3.27389527 [kcal/mol]     -13.69797783 [kJ/mol]
      Ind20,r                      -9.08250459 [mEh]      -5.69935768 [kcal/mol]     -23.84611251 [kJ/mol]
      Exch-Ind20,r                  6.05194503 [mEh]       3.79765284 [kcal/mol]      15.88937948 [kJ/mol]
      delta HF,r (2)               -2.18672466 [mEh]      -1.37219044 [kcal/mol]      -5.74124479 [kJ/mol]

    Dispersion                     -7.42256022 [mEh]      -4.65772686 [kcal/mol]     -19.48792918 [kJ/mol]
      Disp20                       -8.76519152 [mEh]      -5.50024072 [kcal/mol]     -23.01300716 [kJ/mol]
      Exch-Disp20                   1.34263130 [mEh]       0.84251386 [kcal/mol]       3.52507798 [kJ/mol]
      Disp20 (SS)                  -4.38259576 [mEh]      -2.75012036 [kcal/mol]     -11.50650358 [kJ/mol]
      Disp20 (OS)                  -4.38259576 [mEh]      -2.75012036 [kcal/mol]     -11.50650358 [kJ/mol]
      Exch-Disp20 (SS)              0.87278993 [mEh]       0.54768395 [kcal/mol]       2.29150964 [kJ/mol]
      Exch-Disp20 (OS)              0.46984137 [mEh]       0.29482991 [kcal/mol]       1.23356834 [kJ/mol]

  Total HF                         -2.69862612 [mEh]      -1.69341346 [kcal/mol]      -7.08524191 [kJ/mol]
  Total SAPT0                     -10.12118635 [mEh]      -6.35114032 [kcal/mol]     -26.57317109 [kJ/mol]

  Special recipe for scaled SAPT0 (see Manual):
    Electrostatics sSAPT0         -12.32698877 [mEh]      -7.73530223 [kcal/mol]     -32.36450455 [kJ/mol]
    Exchange sSAPT0                14.84564686 [mEh]       9.31578405 [kcal/mol]      38.97724046 [kJ/mol]
    Induction sSAPT0               -5.06404773 [mEh]      -3.17773793 [kcal/mol]     -13.29565549 [kJ/mol]
    Dispersion sSAPT0              -7.38856452 [mEh]      -4.63639424 [kcal/mol]     -19.39867349 [kJ/mol]
  Total sSAPT0                     -9.93395416 [mEh]      -6.23365035 [kcal/mol]     -26.08159307 [kJ/mol]
  --------------------------------------------------------------------------------------------------------

*** Psi4 exiting successfully. Buy a developer a beer!
