                               Psi4 1.3.2 release

  ==> Input File <==

--------------------------------------------------------------------------
# Any line starting with the # character is a comment line
#! Sample  computation

memory 22 gb

molecule Dimer {
0 1
 C -1.787913   -0.744079    0.789250
 C -2.663839    0.330127    0.165935
 H -0.905725   -0.268961    1.228020
 H -2.339087   -1.198845    1.616595
 O -2.003462    1.042884   -0.879246
 H -3.536258   -0.124615   -0.304148
 H -3.021045    1.022275    0.934317
 H -1.270938    1.527098   -0.482312
 C -1.365540   -1.809424   -0.213476
 H -0.696368   -2.539511    0.240986
 H -2.237240   -2.342690   -0.595210
 H -0.855041   -1.357491   -1.062318

 --
0 1
 C  1.186082    2.066621    0.372432
 H  2.023706    2.520485    0.903399
 H  0.440654    1.794777    1.123545
 H  0.756447    2.831326   -0.276677
 C  1.640856    0.843712   -0.415686
 H  0.801981    0.429565   -0.981522
 H  2.390470    1.142917   -1.153058
 C  2.225352   -0.243386    0.477287
 H  1.474843   -0.546225    1.213136
 H  3.063841    0.170243    1.044500
 C  2.686332   -1.459516   -0.316113
 H  3.456021   -1.180964   -1.036994
 H  3.099136   -2.230686    0.333745
 H  1.854318   -1.896100   -0.869811

units angstrom

no_reorient
symmetry c1
}

set globals{
  basis jun-cc-pvtz
}

energy('sapt0')

--------------------------------------------------------------------------

  //              Dimer HF             //
    Molecular point group: c1
  Charge       = 0
  Multiplicity = 1
  Basis Set: JUN-CC-PVTZ
    Blend: JUN-CC-PVTZ
  Basis Set: (JUN-CC-PVTZ AUX)
    Blend: JUN-CC-PVTZ-JKFIT
  @DF-RHF Final Energy:  -350.54444401763544
    Total Energy =                       -350.5444440176354419
  //            Monomer A HF           //
    Molecular point group: c1
  Multiplicity = 1
  Basis Set: JUN-CC-PVTZ
    Blend: JUN-CC-PVTZ
  Basis Set: (JUN-CC-PVTZ AUX)
    Blend: JUN-CC-PVTZ-JKFIT
  @DF-RHF Final Energy:  -193.19176189566613
    Total Energy =                       -193.1917618956661329
  //            Monomer B HF           //
    Molecular point group: c1

    Geometry (in Angstrom), charge = 0, multiplicity = 1:

       Center              X                  Y                   Z               Mass
    ------------   -----------------  -----------------  -----------------  -----------------
      Gh(C)          -1.750207922193    -0.762909136168     0.804969561521    12.000000000000
      Gh(C)          -2.626133922193     0.311296863832     0.181654561521    12.000000000000
      Gh(H)          -0.868019922193    -0.287791136168     1.243739561521     1.007825032230
      Gh(H)          -2.301381922193    -1.217675136168     1.632314561521     1.007825032230
      Gh(O)          -1.965756922193     1.024053863832    -0.863526438479    15.994914619570
      Gh(H)          -3.498552922193    -0.143445136168    -0.288428438479     1.007825032230
      Gh(H)          -2.983339922193     1.003444863832     0.950036561521     1.007825032230
      Gh(H)          -1.233232922193     1.508267863832    -0.466592438479     1.007825032230
      Gh(C)          -1.327834922193    -1.828254136168    -0.197756438479    12.000000000000
      Gh(H)          -0.658662922193    -2.558341136168     0.256705561521     1.007825032230
      Gh(H)          -2.199534922193    -2.361520136168    -0.579490438479     1.007825032230
      Gh(H)          -0.817335922193    -1.376321136168    -1.046598438479     1.007825032230
         C            1.223787077807     2.047790863832     0.388151561521    12.000000000000
         H            2.061411077807     2.501654863832     0.919118561521     1.007825032230
         H            0.478359077807     1.775946863832     1.139264561521     1.007825032230
         H            0.794152077807     2.812495863832    -0.260957438479     1.007825032230
         C            1.678561077807     0.824881863832    -0.399966438479    12.000000000000
         H            0.839686077807     0.410734863832    -0.965802438479     1.007825032230
         H            2.428175077807     1.124086863832    -1.137338438479     1.007825032230
         C            2.263057077807    -0.262216136168     0.493006561521    12.000000000000
         H            1.512548077807    -0.565055136168     1.228855561521     1.007825032230
         H            3.101546077807     0.151412863832     1.060219561521     1.007825032230
         C            2.724037077807    -1.478346136168    -0.300393438479    12.000000000000
         H            3.493726077807    -1.199794136168    -1.021274438479     1.007825032230
         H            3.136841077807    -2.249516136168     0.349464561521     1.007825032230
         H            1.892023077807    -1.914930136168    -0.854091438479     1.007825032230

  Charge       = 0
  Multiplicity = 1
  Basis Set: JUN-CC-PVTZ
    Blend: JUN-CC-PVTZ
  Basis Set: (JUN-CC-PVTZ AUX)
    Blend: JUN-CC-PVTZ-JKFIT

    Orbital Energies [Eh]
    ---------------------

    Doubly Occupied:

       1A    -11.213527     2A    -11.212897     3A    -11.207869
       4A    -11.207462     5A     -1.071329     6A     -0.980103
       7A     -0.860129     8A     -0.787722     9A     -0.638776
      10A     -0.584451    11A     -0.575428    12A     -0.566391
      13A     -0.514313    14A     -0.493698    15A     -0.469563
      16A     -0.461582    17A     -0.455997

  @DF-RHF Final Energy:  -157.35589778436506

   => Energetics <=

    Nuclear Repulsion Energy =            131.0697300692155238
    One-Electron Energy =                -470.2487778535709708
    Two-Electron Energy =                 181.8231499999904202
    Total Energy =                       -157.3558977843650553

  Dipole Moment: [D]
     X:     0.0072      Y:    -0.0006      Z:     0.0011     Total:     0.0073

    SAPT Results
  --------------------------------------------------------------------------------------------------------
    Electrostatics                 -2.50048874 [mEh]      -1.56908037 [kcal/mol]      -6.56503228 [kJ/mol]
      Elst10,r                     -2.50048874 [mEh]      -1.56908037 [kcal/mol]      -6.56503228 [kJ/mol]

    Exchange                        6.78192596 [mEh]       4.25572279 [kcal/mol]      17.80594416 [kJ/mol]
      Exch10                        6.78192596 [mEh]       4.25572279 [kcal/mol]      17.80594416 [kJ/mol]
      Exch10(S^2)                   6.76911519 [mEh]       4.24768391 [kcal/mol]      17.77230949 [kJ/mol]

    Induction                      -1.06577483 [mEh]      -0.66878380 [kcal/mol]      -2.79819143 [kJ/mol]
      Ind20,r                      -1.55032191 [mEh]      -0.97284169 [kcal/mol]      -4.07036962 [kJ/mol]
      Exch-Ind20,r                  1.00986261 [mEh]       0.63369835 [kcal/mol]       2.65139391 [kJ/mol]
      delta HF,r (2)               -0.52531553 [mEh]      -0.32964047 [kcal/mol]      -1.37921572 [kJ/mol]

    Dispersion                     -7.90817759 [mEh]      -4.96245636 [kcal/mol]     -20.76291741 [kJ/mol]
      Disp20                       -8.61366772 [mEh]      -5.40515810 [kcal/mol]     -22.61518149 [kJ/mol]
      Exch-Disp20                   0.70549013 [mEh]       0.44270174 [kcal/mol]       1.85226409 [kJ/mol]
      Disp20 (SS)                  -4.30683386 [mEh]      -2.70257905 [kcal/mol]     -11.30759075 [kJ/mol]
      Disp20 (OS)                  -4.30683386 [mEh]      -2.70257905 [kcal/mol]     -11.30759075 [kJ/mol]
      Exch-Disp20 (SS)              0.46611892 [mEh]       0.29249404 [kcal/mol]       1.22379505 [kJ/mol]
      Exch-Disp20 (OS)              0.23937122 [mEh]       0.15020771 [kcal/mol]       0.62846904 [kJ/mol]

  Total HF                          3.21566240 [mEh]       2.01785862 [kcal/mol]       8.44272046 [kJ/mol]
  Total SAPT0                      -4.69251520 [mEh]      -2.94459774 [kcal/mol]     -12.32019695 [kJ/mol]

  Special recipe for scaled SAPT0 (see Manual):
    Electrostatics sSAPT0          -2.50048874 [mEh]      -1.56908037 [kcal/mol]      -6.56503228 [kJ/mol]
    Exchange sSAPT0                 6.78192596 [mEh]       4.25572279 [kcal/mol]      17.80594416 [kJ/mol]
    Induction sSAPT0               -1.06003038 [mEh]      -0.66517910 [kcal/mol]      -2.78310937 [kJ/mol]
    Dispersion sSAPT0              -7.90416452 [mEh]      -4.95993812 [kcal/mol]     -20.75238108 [kJ/mol]
  Total sSAPT0                     -4.68275767 [mEh]      -2.93847480 [kcal/mol]     -12.29457857 [kJ/mol]
  --------------------------------------------------------------------------------------------------------

*** Psi4 exiting successfully. Buy a developer a beer!
