                               Psi4 1.3.2 release

  ==> Input File <==

--------------------------------------------------------------------------
# Any line starting with the # character is a comment line
#! Sample  computation

memory 22 gb

molecule Dimer {
0 1
 C 2.465143   -0.872468   -0.150185
 C 1.304268   -1.304345    0.731748
 H 3.294977   -0.539307    0.483406
 H 2.817825   -1.768556   -0.669422
 O 0.844851   -0.295482    1.633702
 H 0.439103   -1.547531    0.113644
 H 1.578156   -2.206847    1.287094
 H 1.575702   -0.079267    2.223056
 C 2.134724    0.205604   -1.181595
 H 2.941981    0.237865   -1.916878
 H 1.236220   -0.095822   -1.728227
 C 1.941656    1.602682   -0.599553
 H 2.835488    1.914624   -0.055753
 H 1.765499    2.330499   -1.391904
 H 1.102013    1.633467    0.090432

 --
0 1
 C  -1.840591    1.894516    0.647174
 H  -1.156113    1.597580    1.442109
 H  -2.820914    2.071988    1.092300
 H  -1.487820    2.836974    0.227699
 C  -1.919953    0.802818   -0.411988
 H  -2.589600    1.111542   -1.220183
 H  -0.934361    0.659073   -0.864081
 C  -2.400998   -0.525069    0.158816
 H  -3.386126   -0.383755    0.612285
 H  -1.727765   -0.824947    0.965895
 C  -2.477341   -1.619033   -0.899168
 H  -1.502817   -1.778845   -1.364599
 H  -2.805925   -2.568685   -0.476953
 H  -3.175784   -1.344416   -1.691028

units angstrom

no_reorient
symmetry c1
}

set globals{
  basis jun-cc-pvtz
}

energy('sapt0')

--------------------------------------------------------------------------

  //              Dimer HF             //
    Molecular point group: c1
  Charge       = 0
  Multiplicity = 1
  Basis Set: JUN-CC-PVTZ
    Blend: JUN-CC-PVTZ
  Basis Set: (JUN-CC-PVTZ AUX)
    Blend: JUN-CC-PVTZ-JKFIT
  @DF-RHF Final Energy:  -389.58883657463673
    Total Energy =                       -389.5888365746367299
  //            Monomer A HF           //
    Molecular point group: c1
  Multiplicity = 1
  Basis Set: JUN-CC-PVTZ
    Blend: JUN-CC-PVTZ
  Basis Set: (JUN-CC-PVTZ AUX)
    Blend: JUN-CC-PVTZ-JKFIT
  @DF-RHF Final Energy:  -232.23629523994626
    Total Energy =                       -232.2362952399462870
  //            Monomer B HF           //
    Molecular point group: c1

    Geometry (in Angstrom), charge = 0, multiplicity = 1:

       Center              X                  Y                   Z               Mass
    ------------   -----------------  -----------------  -----------------  -----------------
      Gh(C)           2.450157897491    -0.863052361260    -0.171452817954    12.000000000000
      Gh(C)           1.289282897491    -1.294929361260     0.710480182046    12.000000000000
      Gh(H)           3.279991897491    -0.529891361260     0.462138182046     1.007825032230
      Gh(H)           2.802839897491    -1.759140361260    -0.690689817954     1.007825032230
      Gh(O)           0.829865897491    -0.286066361260     1.612434182046    15.994914619570
      Gh(H)           0.424117897491    -1.538115361260     0.092376182046     1.007825032230
      Gh(H)           1.563170897491    -2.197431361260     1.265826182046     1.007825032230
      Gh(H)           1.560716897491    -0.069851361260     2.201788182046     1.007825032230
      Gh(C)           2.119738897491     0.215019638740    -1.202862817954    12.000000000000
      Gh(H)           2.926995897491     0.247280638740    -1.938145817954     1.007825032230
      Gh(H)           1.221234897491    -0.086406361260    -1.749494817954     1.007825032230
      Gh(C)           1.926670897491     1.612097638740    -0.620820817954    12.000000000000
      Gh(H)           2.820502897491     1.924039638740    -0.077020817954     1.007825032230
      Gh(H)           1.750513897491     2.339914638740    -1.413171817954     1.007825032230
      Gh(H)           1.087027897491     1.642882638740     0.069164182046     1.007825032230
         C           -1.855576102509     1.903931638740     0.625906182046    12.000000000000
         H           -1.171098102509     1.606995638740     1.420841182046     1.007825032230
         H           -2.835899102509     2.081403638740     1.071032182046     1.007825032230
         H           -1.502805102509     2.846389638740     0.206431182046     1.007825032230
         C           -1.934938102509     0.812233638740    -0.433255817954    12.000000000000
         H           -2.604585102509     1.120957638740    -1.241450817954     1.007825032230
         H           -0.949346102509     0.668488638740    -0.885348817954     1.007825032230
         C           -2.415983102509    -0.515653361260     0.137548182046    12.000000000000
         H           -3.401111102509    -0.374339361260     0.591017182046     1.007825032230
         H           -1.742750102509    -0.815531361260     0.944627182046     1.007825032230
         C           -2.492326102509    -1.609617361260    -0.920435817954    12.000000000000
         H           -1.517802102509    -1.769429361260    -1.385866817954     1.007825032230
         H           -2.820910102509    -2.559269361260    -0.498220817954     1.007825032230
         H           -3.190769102509    -1.335000361260    -1.712295817954     1.007825032230

  Charge       = 0
  Multiplicity = 1
  Basis Set: JUN-CC-PVTZ
    Blend: JUN-CC-PVTZ
  Basis Set: (JUN-CC-PVTZ AUX)
    Blend: JUN-CC-PVTZ-JKFIT

    Orbital Energies [Eh]
    ---------------------

    Doubly Occupied:

       1A    -11.213341     2A    -11.212685     3A    -11.207690
       4A    -11.207515     5A     -1.071601     6A     -0.980196
       7A     -0.859971     8A     -0.787339     9A     -0.639383
      10A     -0.584125    11A     -0.575583    12A     -0.567043
      13A     -0.513858    14A     -0.494175    15A     -0.469272
      16A     -0.461814    17A     -0.455672

  @DF-RHF Final Energy:  -157.35586431848884

   => Energetics <=

    Nuclear Repulsion Energy =            131.1246389241656232
    One-Electron Energy =                -470.3584818499543871
    Two-Electron Energy =                 181.8779786072998945
    Total Energy =                       -157.3558643184888410

  Dipole Moment: [D]
     X:    -0.0002      Y:     0.0002      Z:    -0.0019     Total:     0.0019

    SAPT Results
  --------------------------------------------------------------------------------------------------------
    Electrostatics                 -2.73492718 [mEh]      -1.71619271 [kcal/mol]      -7.18055031 [kJ/mol]
      Elst10,r                     -2.73492718 [mEh]      -1.71619271 [kcal/mol]      -7.18055031 [kJ/mol]

    Exchange                        7.07007214 [mEh]       4.43653725 [kcal/mol]      18.56247185 [kJ/mol]
      Exch10                        7.07007214 [mEh]       4.43653725 [kcal/mol]      18.56247185 [kJ/mol]
      Exch10(S^2)                   7.05993388 [mEh]       4.43017540 [kcal/mol]      18.53585386 [kJ/mol]

    Induction                      -1.01216117 [mEh]      -0.63514072 [kcal/mol]      -2.65742878 [kJ/mol]
      Ind20,r                      -1.63697210 [mEh]      -1.02721550 [kcal/mol]      -4.29786964 [kJ/mol]
      Exch-Ind20,r                  1.13892164 [mEh]       0.71468412 [kcal/mol]       2.99023835 [kJ/mol]
      delta HF,r (2)               -0.51411071 [mEh]      -0.32260934 [kcal/mol]      -1.34979748 [kJ/mol]

    Dispersion                     -8.72486205 [mEh]      -5.47493360 [kcal/mol]     -22.90712216 [kJ/mol]
      Disp20                       -9.52388504 [mEh]      -5.97632809 [kcal/mol]     -25.00495673 [kJ/mol]
      Exch-Disp20                   0.79902299 [mEh]       0.50139450 [kcal/mol]       2.09783457 [kJ/mol]
      Disp20 (SS)                  -4.76194252 [mEh]      -2.98816405 [kcal/mol]     -12.50247837 [kJ/mol]
      Disp20 (OS)                  -4.76194252 [mEh]      -2.98816405 [kcal/mol]     -12.50247837 [kJ/mol]
      Exch-Disp20 (SS)              0.51821518 [mEh]       0.32518493 [kcal/mol]       1.36057376 [kJ/mol]
      Exch-Disp20 (OS)              0.28080781 [mEh]       0.17620956 [kcal/mol]       0.73726081 [kJ/mol]

  Total HF                          3.32298380 [mEh]       2.08520381 [kcal/mol]       8.72449276 [kJ/mol]
  Total SAPT0                      -5.40187825 [mEh]      -3.38972978 [kcal/mol]     -14.18262940 [kJ/mol]

  Special recipe for scaled SAPT0 (see Manual):
    Electrostatics sSAPT0          -2.73492718 [mEh]      -1.71619271 [kcal/mol]      -7.18055031 [kJ/mol]
    Exchange sSAPT0                 7.07007214 [mEh]       4.43653725 [kcal/mol]      18.56247185 [kJ/mol]
    Induction sSAPT0               -1.00724755 [mEh]      -0.63205738 [kcal/mol]      -2.64452808 [kJ/mol]
    Dispersion sSAPT0              -8.72141485 [mEh]      -5.47277044 [kcal/mol]     -22.89807153 [kJ/mol]
  Total sSAPT0                     -5.39351744 [mEh]      -3.38448329 [kcal/mol]     -14.16067808 [kJ/mol]
  --------------------------------------------------------------------------------------------------------

*** Psi4 exiting successfully. Buy a developer a beer!
