                               Psi4 1.3.2 release

  ==> Input File <==

--------------------------------------------------------------------------
# Any line starting with the # character is a comment line
#! Sample  computation

memory 22 gb

molecule Dimer {
0 1
 C -2.451152    0.326206   -0.977618
 C -1.949129   -0.808432   -0.106855
 O -1.731128   -0.401484    1.244482
 H -3.424838    0.677085   -0.632593
 H -2.560686   -0.004628   -2.010955
 H -1.754201    1.162251   -0.949255
 H -2.639466   -1.655875   -0.143441
 H -0.979442   -1.158915   -0.457037
 H -2.579421   -0.127057    1.608780

 --
0 1
 C  0.947943    2.020092    0.289782
 H  1.714695    2.368016    0.983523
 H  0.060689    1.767875    0.871451
 H  0.699698    2.847806   -0.375194
 C  1.437442    0.801992   -0.483643
 H  0.673954    0.489190   -1.202558
 H  2.321941    1.062078   -1.072248
 C  1.769474   -0.369454    0.432561
 H  0.891773   -0.605746    1.039418
 H  2.554608   -0.063041    1.129379
 C  2.221840   -1.602447   -0.339656
 H  3.111380   -1.385434   -0.932931
 H  2.457140   -2.431741    0.327048
 H  1.442699   -1.937745   -1.026669

units angstrom

no_reorient
symmetry c1
}

set globals{
  basis jun-cc-pvtz
}

energy('sapt0')

--------------------------------------------------------------------------

  //              Dimer HF             //
    Molecular point group: c1
  Charge       = 0
  Multiplicity = 1
  Basis Set: JUN-CC-PVTZ
    Blend: JUN-CC-PVTZ
  Basis Set: (JUN-CC-PVTZ AUX)
    Blend: JUN-CC-PVTZ-JKFIT
  @DF-RHF Final Energy:  -311.49772651845529
    Total Energy =                       -311.4977265184552948
  //            Monomer A HF           //
    Molecular point group: c1
  Multiplicity = 1
  Basis Set: JUN-CC-PVTZ
    Blend: JUN-CC-PVTZ
  Basis Set: (JUN-CC-PVTZ AUX)
    Blend: JUN-CC-PVTZ-JKFIT
  @DF-RHF Final Energy:  -154.14441910208990
    Total Energy =                       -154.1444191020898984
  //            Monomer B HF           //
    Molecular point group: c1

    Geometry (in Angstrom), charge = 0, multiplicity = 1:

       Center              X                  Y                   Z               Mass
    ------------   -----------------  -----------------  -----------------  -----------------
      Gh(C)          -2.432268716531     0.335754990954    -1.004651244812    12.000000000000
      Gh(C)          -1.930245716531    -0.798883009046    -0.133888244812    12.000000000000
      Gh(O)          -1.712244716531    -0.391935009046     1.217448755188    15.994914619570
      Gh(H)          -3.405954716531     0.686633990954    -0.659626244812     1.007825032230
      Gh(H)          -2.541802716531     0.004920990954    -2.037988244812     1.007825032230
      Gh(H)          -1.735317716531     1.171799990954    -0.976288244812     1.007825032230
      Gh(H)          -2.620582716531    -1.646326009046    -0.170474244812     1.007825032230
      Gh(H)          -0.960558716531    -1.149366009046    -0.484070244812     1.007825032230
      Gh(H)          -2.560537716531    -0.117508009046     1.581746755188     1.007825032230
         C            0.966826283469     2.029640990954     0.262748755188    12.000000000000
         H            1.733578283469     2.377564990954     0.956489755188     1.007825032230
         H            0.079572283469     1.777423990954     0.844417755188     1.007825032230
         H            0.718581283469     2.857354990954    -0.402227244812     1.007825032230
         C            1.456325283469     0.811540990954    -0.510676244812    12.000000000000
         H            0.692837283469     0.498738990954    -1.229591244812     1.007825032230
         H            2.340824283469     1.071626990954    -1.099281244812     1.007825032230
         C            1.788357283469    -0.359905009046     0.405527755188    12.000000000000
         H            0.910656283469    -0.596197009046     1.012384755188     1.007825032230
         H            2.573491283469    -0.053492009046     1.102345755188     1.007825032230
         C            2.240723283469    -1.592898009046    -0.366689244812    12.000000000000
         H            3.130263283469    -1.375885009046    -0.959964244812     1.007825032230
         H            2.476023283469    -2.422192009046     0.300014755188     1.007825032230
         H            1.461582283469    -1.928196009046    -1.053702244812     1.007825032230

  Charge       = 0
  Multiplicity = 1
  Basis Set: JUN-CC-PVTZ
    Blend: JUN-CC-PVTZ
  Basis Set: (JUN-CC-PVTZ AUX)
    Blend: JUN-CC-PVTZ-JKFIT

    Orbital Energies [Eh]
    ---------------------

    Doubly Occupied:

       1A    -11.213414     2A    -11.212783     3A    -11.207632
       4A    -11.207583     5A     -1.071440     6A     -0.980153
       7A     -0.859954     8A     -0.787564     9A     -0.638995
      10A     -0.584263    11A     -0.575574    12A     -0.566815
      13A     -0.514053    14A     -0.493968    15A     -0.469605
      16A     -0.461611    17A     -0.455645

  @DF-RHF Final Energy:  -157.35585741308324

   => Energetics <=

    Nuclear Repulsion Energy =            131.1080936934700674
    One-Electron Energy =                -470.3257954344761629
    Two-Electron Energy =                 181.8618443279228245
    Total Energy =                       -157.3558574130832426

  Dipole Moment: [D]
     X:     0.0053      Y:    -0.0001      Z:     0.0001     Total:     0.0053

    SAPT Results
  --------------------------------------------------------------------------------------------------------
    Electrostatics                 -2.51024405 [mEh]      -1.57520192 [kcal/mol]      -6.59064484 [kJ/mol]
      Elst10,r                     -2.51024405 [mEh]      -1.57520192 [kcal/mol]      -6.59064484 [kJ/mol]

    Exchange                        5.99386058 [mEh]       3.76120430 [kcal/mol]      15.73687878 [kJ/mol]
      Exch10                        5.99386058 [mEh]       3.76120430 [kcal/mol]      15.73687878 [kJ/mol]
      Exch10(S^2)                   5.98603864 [mEh]       3.75629596 [kcal/mol]      15.71634229 [kJ/mol]

    Induction                      -0.93361981 [mEh]      -0.58585528 [kcal/mol]      -2.45121847 [kJ/mol]
      Ind20,r                      -1.51429923 [mEh]      -0.95023712 [kcal/mol]      -3.97579209 [kJ/mol]
      Exch-Ind20,r                  1.01401714 [mEh]       0.63630536 [kcal/mol]       2.66230164 [kJ/mol]
      delta HF,r (2)               -0.43333772 [mEh]      -0.27192353 [kcal/mol]      -1.13772803 [kJ/mol]

    Dispersion                     -6.93076263 [mEh]      -4.34911921 [kcal/mol]     -18.19671479 [kJ/mol]
      Disp20                       -7.59025547 [mEh]      -4.76295721 [kcal/mol]     -19.92821298 [kJ/mol]
      Exch-Disp20                   0.65949283 [mEh]       0.41383800 [kcal/mol]       1.73149820 [kJ/mol]
      Disp20 (SS)                  -3.79512773 [mEh]      -2.38147861 [kcal/mol]      -9.96410649 [kJ/mol]
      Disp20 (OS)                  -3.79512773 [mEh]      -2.38147861 [kcal/mol]      -9.96410649 [kJ/mol]
      Exch-Disp20 (SS)              0.42648075 [mEh]       0.26762071 [kcal/mol]       1.11972506 [kJ/mol]
      Exch-Disp20 (OS)              0.23301208 [mEh]       0.14621729 [kcal/mol]       0.61177313 [kJ/mol]

  Total HF                          2.54999672 [mEh]       1.60014710 [kcal/mol]       6.69501546 [kJ/mol]
  Total SAPT0                      -4.38076591 [mEh]      -2.74897211 [kcal/mol]     -11.50169933 [kJ/mol]

  Special recipe for scaled SAPT0 (see Manual):
    Electrostatics sSAPT0          -2.51024405 [mEh]      -1.57520192 [kcal/mol]      -6.59064484 [kJ/mol]
    Exchange sSAPT0                 5.99386058 [mEh]       3.76120430 [kcal/mol]      15.73687878 [kJ/mol]
    Induction sSAPT0               -0.92963958 [mEh]      -0.58335764 [kcal/mol]      -2.44076837 [kJ/mol]
    Dispersion sSAPT0              -6.92817398 [mEh]      -4.34749481 [kcal/mol]     -18.18991829 [kJ/mol]
  Total sSAPT0                     -4.37419703 [mEh]      -2.74485008 [kcal/mol]     -11.48445273 [kJ/mol]
  --------------------------------------------------------------------------------------------------------

*** Psi4 exiting successfully. Buy a developer a beer!
