                               Psi4 1.3.2 release

  ==> Input File <==

--------------------------------------------------------------------------
# Any line starting with the # character is a comment line
#! Sample  computation

memory 22 gb

molecule Dimer {
0 1
 C  1.719092   -0.288076   -0.858196
 C  0.896537   -1.423006   -0.269374
 H  2.717985   -0.293013   -0.407319
 H  1.861577   -0.520519   -1.917773
 O  0.739857   -1.360029    1.149201
 H -0.117819   -1.390594   -0.668169
 H  1.334654   -2.383975   -0.556641
 H  1.617618   -1.415014    1.542004
 C  1.099140    1.103324   -0.727362
 H  1.597836    1.770235   -1.434309
 H  0.051805    1.053982   -1.038165
 C  1.193326    1.709505    0.669639
 H  2.235166    1.762814    0.991725
 H  0.792560    2.723307    0.679104
 H  0.644900    1.115647    1.396289

 --
0 1
 C  -2.431217    0.400411    0.622325
 C  -2.912568   -0.195197   -0.696093
 H  -1.550452   -0.120093    0.997099
 H  -3.206129    0.332274    1.385262
 H  -2.172669    1.453077    0.507585
 H  -3.150194   -1.252967   -0.586470
 H  -2.153091   -0.106400   -1.473293
 H  -3.808466    0.309705   -1.056177

units angstrom

no_reorient
symmetry c1
}

set globals{
  basis jun-cc-pvtz
}

energy('sapt0')

--------------------------------------------------------------------------

  //              Dimer HF             //
    Molecular point group: c1
  Charge       = 0
  Multiplicity = 1
  Basis Set: JUN-CC-PVTZ
    Blend: JUN-CC-PVTZ
  Basis Set: (JUN-CC-PVTZ AUX)
    Blend: JUN-CC-PVTZ-JKFIT
  @DF-RHF Final Energy:  -311.49393519468748
    Total Energy =                       -311.4939351946874808
  //            Monomer A HF           //
    Molecular point group: c1
  Multiplicity = 1
  Basis Set: JUN-CC-PVTZ
    Blend: JUN-CC-PVTZ
  Basis Set: (JUN-CC-PVTZ AUX)
    Blend: JUN-CC-PVTZ-JKFIT
  @DF-RHF Final Energy:  -232.23627944549904
    Total Energy =                       -232.2362794454990649
  //            Monomer B HF           //
    Molecular point group: c1

    Geometry (in Angstrom), charge = 0, multiplicity = 1:

       Center              X                  Y                   Z               Mass
    ------------   -----------------  -----------------  -----------------  -----------------
      Gh(C)           1.687637069233    -0.259188463362    -0.873760376828    12.000000000000
      Gh(C)           0.865082069233    -1.394118463362    -0.284938376828    12.000000000000
      Gh(H)           2.686530069233    -0.264125463362    -0.422883376828     1.007825032230
      Gh(H)           1.830122069233    -0.491631463362    -1.933337376828     1.007825032230
      Gh(O)           0.708402069233    -1.331141463362     1.133636623172    15.994914619570
      Gh(H)          -0.149273930767    -1.361706463362    -0.683733376828     1.007825032230
      Gh(H)           1.303199069233    -2.355087463362    -0.572205376828     1.007825032230
      Gh(H)           1.586163069233    -1.386126463362     1.526439623172     1.007825032230
      Gh(C)           1.067685069233     1.132211536638    -0.742926376828    12.000000000000
      Gh(H)           1.566381069233     1.799122536638    -1.449873376828     1.007825032230
      Gh(H)           0.020350069233     1.082869536638    -1.053729376828     1.007825032230
      Gh(C)           1.161871069233     1.738392536638     0.654074623172    12.000000000000
      Gh(H)           2.203711069233     1.791701536638     0.976160623172     1.007825032230
      Gh(H)           0.761105069233     2.752194536638     0.663539623172     1.007825032230
      Gh(H)           0.613445069233     1.144534536638     1.380724623172     1.007825032230
         C           -2.462671930767     0.429298536638     0.606760623172    12.000000000000
         C           -2.944022930767    -0.166309463362    -0.711657376828    12.000000000000
         H           -1.581906930767    -0.091205463362     0.981534623172     1.007825032230
         H           -3.237583930767     0.361161536638     1.369697623172     1.007825032230
         H           -2.204123930767     1.481964536638     0.492020623172     1.007825032230
         H           -3.181648930767    -1.224079463362    -0.602034376828     1.007825032230
         H           -2.184545930767    -0.077512463362    -1.488857376828     1.007825032230
         H           -3.839920930767     0.338592536638    -1.071741376828     1.007825032230

  Charge       = 0
  Multiplicity = 1
  Basis Set: JUN-CC-PVTZ
    Blend: JUN-CC-PVTZ
  Basis Set: (JUN-CC-PVTZ AUX)
    Blend: JUN-CC-PVTZ-JKFIT

    Orbital Energies [Eh]
    ---------------------

    Doubly Occupied:

       1A    -11.210713     2A    -11.210098     3A     -1.018226
       4A     -0.841689     5A     -0.597016     6A     -0.596603
       7A     -0.509958     8A     -0.486804     9A     -0.486215

  @DF-RHF Final Energy:   -79.26012781636487

   => Energetics <=

    Nuclear Repulsion Energy =             42.3241560569389534
    One-Electron Energy =                -189.2539269226851388
    Two-Electron Energy =                  67.6696430493813068
    Total Energy =                        -79.2601278163648715

  Dipole Moment: [D]
     X:    -0.0028      Y:     0.0002      Z:     0.0003     Total:     0.0028

    SAPT Results
  --------------------------------------------------------------------------------------------------------
    Electrostatics                 -2.09153982 [mEh]      -1.31246105 [kcal/mol]      -5.49133705 [kJ/mol]
      Elst10,r                     -2.09153982 [mEh]      -1.31246105 [kcal/mol]      -5.49133705 [kJ/mol]

    Exchange                        5.23855012 [mEh]       3.28723983 [kcal/mol]      13.75381144 [kJ/mol]
      Exch10                        5.23855012 [mEh]       3.28723983 [kcal/mol]      13.75381144 [kJ/mol]
      Exch10(S^2)                   5.22816849 [mEh]       3.28072526 [kcal/mol]      13.72655448 [kJ/mol]

    Induction                      -0.67494312 [mEh]      -0.42353320 [kcal/mol]      -1.77206291 [kJ/mol]
      Ind20,r                      -1.13966170 [mEh]      -0.71514852 [kcal/mol]      -2.99218139 [kJ/mol]
      Exch-Ind20,r                  0.84588410 [mEh]       0.53080029 [kcal/mol]       2.22086841 [kJ/mol]
      delta HF,r (2)               -0.38116552 [mEh]      -0.23918497 [kcal/mol]      -1.00074993 [kJ/mol]

    Dispersion                     -6.11903994 [mEh]      -3.83975553 [kcal/mol]     -16.06553715 [kJ/mol]
      Disp20                       -6.69109661 [mEh]      -4.19872651 [kcal/mol]     -17.56747172 [kJ/mol]
      Exch-Disp20                   0.57205667 [mEh]       0.35897098 [kcal/mol]       1.50193457 [kJ/mol]
      Disp20 (SS)                  -3.34554830 [mEh]      -2.09936326 [kcal/mol]      -8.78373586 [kJ/mol]
      Disp20 (OS)                  -3.34554830 [mEh]      -2.09936326 [kcal/mol]      -8.78373586 [kJ/mol]
      Exch-Disp20 (SS)              0.37184053 [mEh]       0.23333345 [kcal/mol]       0.97626718 [kJ/mol]
      Exch-Disp20 (OS)              0.20021614 [mEh]       0.12563752 [kcal/mol]       0.52566740 [kJ/mol]

  Total HF                          2.47206718 [mEh]       1.55124557 [kcal/mol]       6.49041148 [kJ/mol]
  Total SAPT0                      -3.64697276 [mEh]      -2.28850996 [kcal/mol]      -9.57512567 [kJ/mol]

  Special recipe for scaled SAPT0 (see Manual):
    Electrostatics sSAPT0          -2.09153982 [mEh]      -1.31246105 [kcal/mol]      -5.49133705 [kJ/mol]
    Exchange sSAPT0                 5.23855012 [mEh]       3.28723983 [kcal/mol]      13.75381144 [kJ/mol]
    Induction sSAPT0               -0.66989406 [mEh]      -0.42036487 [kcal/mol]      -1.75880662 [kJ/mol]
    Dispersion sSAPT0              -6.11562535 [mEh]      -3.83761285 [kcal/mol]     -16.05657215 [kJ/mol]
  Total sSAPT0                     -3.63850912 [mEh]      -2.28319894 [kcal/mol]      -9.55290438 [kJ/mol]
  --------------------------------------------------------------------------------------------------------

*** Psi4 exiting successfully. Buy a developer a beer!
