                               Psi4 1.3.2 release

  ==> Input File <==

--------------------------------------------------------------------------
# Any line starting with the # character is a comment line
#! Sample  computation

memory 22 gb

molecule Dimer {
0 1
 C  1.744724    0.505422    0.593816
 C  1.834210   -0.885972   -0.009447
 H  1.110761    0.464514    1.484954
 H  2.741540    0.792911    0.937992
 O  0.568922   -1.380672   -0.446643
 H  2.457267   -0.867395   -0.903879
 H  2.290768   -1.579826    0.702694
 H -0.015508   -1.401460    0.319283
 C  1.205774    1.536841   -0.388530
 H  1.133817    2.521656    0.071546
 H  1.861744    1.617513   -1.256222
 H  0.217397    1.251932   -0.745250

 --
0 1
 C  -2.635518    0.151469   -0.648108
 C  -2.370153   -0.006315    0.844729
 H  -2.737665    1.202277   -0.916882
 H  -3.555256   -0.355301   -0.937490
 H  -1.820865   -0.268134   -1.236726
 H  -3.182936    0.407553    1.440508
 H  -1.454725    0.508140    1.138436
 H  -2.271936   -1.057678    1.119422

units angstrom

no_reorient
symmetry c1
}

set globals{
  basis jun-cc-pvtz
}

energy('sapt0')

--------------------------------------------------------------------------

  //              Dimer HF             //
    Molecular point group: c1
  Charge       = 0
  Multiplicity = 1
  Basis Set: JUN-CC-PVTZ
    Blend: JUN-CC-PVTZ
  Basis Set: (JUN-CC-PVTZ AUX)
    Blend: JUN-CC-PVTZ-JKFIT
  @DF-RHF Final Energy:  -272.44998140987991
    Total Energy =                       -272.4499814098799106
  //            Monomer A HF           //
    Molecular point group: c1
  Multiplicity = 1
  Basis Set: JUN-CC-PVTZ
    Blend: JUN-CC-PVTZ
  Basis Set: (JUN-CC-PVTZ AUX)
    Blend: JUN-CC-PVTZ-JKFIT
  @DF-RHF Final Energy:  -193.19167943951859
    Total Energy =                       -193.1916794395185946
  //            Monomer B HF           //
    Molecular point group: c1

    Geometry (in Angstrom), charge = 0, multiplicity = 1:

       Center              X                  Y                   Z               Mass
    ------------   -----------------  -----------------  -----------------  -----------------
      Gh(C)           1.709237796157     0.540984737736     0.607206865145    12.000000000000
      Gh(C)           1.798723796157    -0.850409262264     0.003943865145    12.000000000000
      Gh(H)           1.075274796157     0.500076737736     1.498344865145     1.007825032230
      Gh(H)           2.706053796157     0.828473737736     0.951382865145     1.007825032230
      Gh(O)           0.533435796157    -1.345109262264    -0.433252134855    15.994914619570
      Gh(H)           2.421780796157    -0.831832262264    -0.890488134855     1.007825032230
      Gh(H)           2.255281796157    -1.544263262264     0.716084865145     1.007825032230
      Gh(H)          -0.050994203843    -1.365897262264     0.332673865145     1.007825032230
      Gh(C)           1.170287796157     1.572403737736    -0.375139134855    12.000000000000
      Gh(H)           1.098330796157     2.557218737736     0.084936865145     1.007825032230
      Gh(H)           1.826257796157     1.653075737736    -1.242831134855     1.007825032230
      Gh(H)           0.181910796157     1.287494737736    -0.731859134855     1.007825032230
         C           -2.671004203843     0.187031737736    -0.634717134855    12.000000000000
         C           -2.405639203843     0.029247737736     0.858119865145    12.000000000000
         H           -2.773151203843     1.237839737736    -0.903491134855     1.007825032230
         H           -3.590742203843    -0.319738262264    -0.924099134855     1.007825032230
         H           -1.856351203843    -0.232571262264    -1.223335134855     1.007825032230
         H           -3.218422203843     0.443115737736     1.453898865145     1.007825032230
         H           -1.490211203843     0.543702737736     1.151826865145     1.007825032230
         H           -2.307422203843    -1.022115262264     1.132812865145     1.007825032230

  Charge       = 0
  Multiplicity = 1
  Basis Set: JUN-CC-PVTZ
    Blend: JUN-CC-PVTZ
  Basis Set: (JUN-CC-PVTZ AUX)
    Blend: JUN-CC-PVTZ-JKFIT

    Orbital Energies [Eh]
    ---------------------

    Doubly Occupied:

       1A    -11.210640     2A    -11.210019     3A     -1.018381
       4A     -0.841396     5A     -0.597433     6A     -0.596724
       7A     -0.509512     8A     -0.486893     9A     -0.486248

  @DF-RHF Final Energy:   -79.26011546983366

   => Energetics <=

    Nuclear Repulsion Energy =             42.3321432512366940
    One-Electron Energy =                -189.2700237655693627
    Two-Electron Energy =                  67.6777650444990115
    Total Energy =                        -79.2601154698336643

  Dipole Moment: [D]
     X:    -0.0047      Y:     0.0020      Z:    -0.0000     Total:     0.0051

    SAPT Results
  --------------------------------------------------------------------------------------------------------
    Electrostatics                 -2.02513420 [mEh]      -1.27079089 [kcal/mol]      -5.31698910 [kJ/mol]
      Elst10,r                     -2.02513420 [mEh]      -1.27079089 [kcal/mol]      -5.31698910 [kJ/mol]

    Exchange                        4.59412084 [mEh]       2.88285435 [kcal/mol]      12.06186260 [kJ/mol]
      Exch10                        4.59412084 [mEh]       2.88285435 [kcal/mol]      12.06186260 [kJ/mol]
      Exch10(S^2)                   4.58606404 [mEh]       2.87779863 [kcal/mol]      12.04070948 [kJ/mol]

    Induction                      -0.75548717 [mEh]      -0.47407536 [kcal/mol]      -1.98353129 [kJ/mol]
      Ind20,r                      -1.13541756 [mEh]      -0.71248528 [kcal/mol]      -2.98103840 [kJ/mol]
      Exch-Ind20,r                  0.70429631 [mEh]       0.44195261 [kcal/mol]       1.84912971 [kJ/mol]
      delta HF,r (2)               -0.32436592 [mEh]      -0.20354269 [kcal/mol]      -0.85162260 [kJ/mol]

    Dispersion                     -5.14514011 [mEh]      -3.22862416 [kcal/mol]     -13.50856349 [kJ/mol]
      Disp20                       -5.61456282 [mEh]      -3.52319136 [kcal/mol]     -14.74103264 [kJ/mol]
      Exch-Disp20                   0.46942271 [mEh]       0.29456720 [kcal/mol]       1.23246916 [kJ/mol]
      Disp20 (SS)                  -2.80728141 [mEh]      -1.76159568 [kcal/mol]      -7.37051632 [kJ/mol]
      Disp20 (OS)                  -2.80728141 [mEh]      -1.76159568 [kcal/mol]      -7.37051632 [kJ/mol]
      Exch-Disp20 (SS)              0.30940210 [mEh]       0.19415275 [kcal/mol]       0.81233511 [kJ/mol]
      Exch-Disp20 (OS)              0.16002061 [mEh]       0.10041445 [kcal/mol]       0.42013405 [kJ/mol]

  Total HF                          1.81349947 [mEh]       1.13798810 [kcal/mol]       4.76134221 [kJ/mol]
  Total SAPT0                      -3.33164063 [mEh]      -2.09063606 [kcal/mol]      -8.74722128 [kJ/mol]

  Special recipe for scaled SAPT0 (see Manual):
    Electrostatics sSAPT0          -2.02513420 [mEh]      -1.27079089 [kcal/mol]      -5.31698910 [kJ/mol]
    Exchange sSAPT0                 4.59412084 [mEh]       2.88285435 [kcal/mol]      12.06186260 [kJ/mol]
    Induction sSAPT0               -0.75176872 [mEh]      -0.47174199 [kcal/mol]      -1.97376850 [kJ/mol]
    Dispersion sSAPT0              -5.14266171 [mEh]      -3.22706894 [kcal/mol]     -13.50205646 [kJ/mol]
  Total sSAPT0                     -3.32544379 [mEh]      -2.08674748 [kcal/mol]      -8.73095147 [kJ/mol]
  --------------------------------------------------------------------------------------------------------

*** Psi4 exiting successfully. Buy a developer a beer!
