                               Psi4 1.3.2 release

  ==> Input File <==

--------------------------------------------------------------------------
# Any line starting with the # character is a comment line
#! Sample  computation

memory 22 gb

molecule Dimer {
0 1
 C 1.456613    1.232882   -0.263814
 C 1.505670   -0.032694    0.568640
 O 1.517507   -1.211470   -0.236301
 H 2.351287    1.323980   -0.881523
 H 1.401413    2.112506    0.378378
 H 0.585586    1.222201   -0.916754
 H 2.370200   -0.019145    1.238317
 H 0.612411   -0.119570    1.184991
 H 2.306528   -1.182382   -0.787549

 --
0 1
 C  -2.298118    0.707542    0.022855
 C  -2.094154   -0.802139   -0.040409
 H  -3.289863    0.957970    0.398155
 H  -2.194191    1.161630   -0.962333
 H  -1.569002    1.179707    0.681384
 H  -2.832138   -1.267771   -0.692742
 H  -2.196941   -1.253175    0.946272
 H  -1.105418   -1.057737   -0.419822

units angstrom

no_reorient
symmetry c1
}

set globals{
  basis jun-cc-pvtz
}

energy('sapt0')

--------------------------------------------------------------------------

  //              Dimer HF             //
    Molecular point group: c1
  Charge       = 0
  Multiplicity = 1
  Basis Set: JUN-CC-PVTZ
    Blend: JUN-CC-PVTZ
  Basis Set: (JUN-CC-PVTZ AUX)
    Blend: JUN-CC-PVTZ-JKFIT
  @DF-RHF Final Energy:  -233.40273630667775
    Total Energy =                       -233.4027363066777525
  //            Monomer A HF           //
    Molecular point group: c1
  Multiplicity = 1
  Basis Set: JUN-CC-PVTZ
    Blend: JUN-CC-PVTZ
  Basis Set: (JUN-CC-PVTZ AUX)
    Blend: JUN-CC-PVTZ-JKFIT
  @DF-RHF Final Energy:  -154.14440754971417
    Total Energy =                       -154.1444075497141739
  //            Monomer B HF           //
    Molecular point group: c1

    Geometry (in Angstrom), charge = 0, multiplicity = 1:

       Center              X                  Y                   Z               Mass
    ------------   -----------------  -----------------  -----------------  -----------------
      Gh(C)           1.410291595429     1.272679210547    -0.261655058405    12.000000000000
      Gh(C)           1.459348595429     0.007103210547     0.570798941595    12.000000000000
      Gh(O)           1.471185595429    -1.171672789453    -0.234142058405    15.994914619570
      Gh(H)           2.304965595429     1.363777210547    -0.879364058405     1.007825032230
      Gh(H)           1.355091595429     2.152303210547     0.380536941595     1.007825032230
      Gh(H)           0.539264595429     1.261998210547    -0.914595058405     1.007825032230
      Gh(H)           2.323878595429     0.020652210547     1.240475941595     1.007825032230
      Gh(H)           0.566089595429    -0.079772789453     1.187149941595     1.007825032230
      Gh(H)           2.260206595429    -1.142584789453    -0.785390058405     1.007825032230
         C           -2.344439404571     0.747339210547     0.025013941595    12.000000000000
         C           -2.140475404571    -0.762341789453    -0.038250058405    12.000000000000
         H           -3.336184404571     0.997767210547     0.400313941595     1.007825032230
         H           -2.240512404571     1.201427210547    -0.960174058405     1.007825032230
         H           -1.615323404571     1.219504210547     0.683542941595     1.007825032230
         H           -2.878459404571    -1.227973789453    -0.690583058405     1.007825032230
         H           -2.243262404571    -1.213377789453     0.948430941595     1.007825032230
         H           -1.151739404571    -1.017939789453    -0.417663058405     1.007825032230

  Charge       = 0
  Multiplicity = 1
  Basis Set: JUN-CC-PVTZ
    Blend: JUN-CC-PVTZ
  Basis Set: (JUN-CC-PVTZ AUX)
    Blend: JUN-CC-PVTZ-JKFIT

    Orbital Energies [Eh]
    ---------------------

    Doubly Occupied:

       1A    -11.210682     2A    -11.210072     3A     -1.018230
       4A     -0.841801     5A     -0.596894     6A     -0.596671
       7A     -0.510069     8A     -0.486802     9A     -0.486246

  @DF-RHF Final Energy:   -79.26012947350553

   => Energetics <=

    Nuclear Repulsion Energy =             42.3251843486876282
    One-Electron Energy =                -189.2556997538476935
    Two-Electron Energy =                  67.6703859316545362
    Total Energy =                        -79.2601294735055291

  Dipole Moment: [D]
     X:    -0.0028      Y:    -0.0005      Z:     0.0006     Total:     0.0029

    SAPT Results
  --------------------------------------------------------------------------------------------------------
    Electrostatics                 -1.67141433 [mEh]      -1.04882833 [kcal/mol]      -4.38829772 [kJ/mol]
      Elst10,r                     -1.67141433 [mEh]      -1.04882833 [kcal/mol]      -4.38829772 [kJ/mol]

    Exchange                        4.04471183 [mEh]       2.53809499 [kcal/mol]      10.61938944 [kJ/mol]
      Exch10                        4.04471183 [mEh]       2.53809499 [kcal/mol]      10.61938944 [kJ/mol]
      Exch10(S^2)                   4.03866584 [mEh]       2.53430107 [kcal/mol]      10.60351569 [kJ/mol]

    Induction                      -0.57258096 [mEh]      -0.35929997 [kcal/mol]      -1.50331109 [kJ/mol]
      Ind20,r                      -0.95489374 [mEh]      -0.59920487 [kcal/mol]      -2.50707316 [kJ/mol]
      Exch-Ind20,r                  0.66715809 [mEh]       0.41864802 [kcal/mol]       1.75162332 [kJ/mol]
      delta HF,r (2)               -0.28484531 [mEh]      -0.17874313 [kcal/mol]      -0.74786126 [kJ/mol]

    Dispersion                     -4.58416550 [mEh]      -2.87660728 [kcal/mol]     -12.03572486 [kJ/mol]
      Disp20                       -5.00958931 [mEh]      -3.14356475 [kcal/mol]     -13.15267493 [kJ/mol]
      Exch-Disp20                   0.42542381 [mEh]       0.26695747 [kcal/mol]       1.11695007 [kJ/mol]
      Disp20 (SS)                  -2.50479466 [mEh]      -1.57178238 [kcal/mol]      -6.57633746 [kJ/mol]
      Disp20 (OS)                  -2.50479466 [mEh]      -1.57178238 [kcal/mol]      -6.57633746 [kJ/mol]
      Exch-Disp20 (SS)              0.27604027 [mEh]       0.17321788 [kcal/mol]       0.72474363 [kJ/mol]
      Exch-Disp20 (OS)              0.14938354 [mEh]       0.09373959 [kcal/mol]       0.39220644 [kJ/mol]

  Total HF                          1.80071654 [mEh]       1.12996669 [kcal/mol]       4.72778063 [kJ/mol]
  Total SAPT0                      -2.78344896 [mEh]      -1.74664059 [kcal/mol]      -7.30794423 [kJ/mol]

  Special recipe for scaled SAPT0 (see Manual):
    Electrostatics sSAPT0          -1.67141433 [mEh]      -1.04882833 [kcal/mol]      -4.38829772 [kJ/mol]
    Exchange sSAPT0                 4.04471183 [mEh]       2.53809499 [kcal/mol]      10.61938944 [kJ/mol]
    Induction sSAPT0               -0.56958021 [mEh]      -0.35741698 [kcal/mol]      -1.49543263 [kJ/mol]
    Dispersion sSAPT0              -4.58225202 [mEh]      -2.87540656 [kcal/mol]     -12.03070103 [kJ/mol]
  Total sSAPT0                     -2.77853473 [mEh]      -1.74355687 [kcal/mol]      -7.29504193 [kJ/mol]
  --------------------------------------------------------------------------------------------------------

*** Psi4 exiting successfully. Buy a developer a beer!
