                               Psi4 1.3.2 release

  ==> Input File <==

--------------------------------------------------------------------------
# Any line starting with the # character is a comment line
#! Sample  computation

memory 22 gb

molecule Dimer {
0 1
 C -2.068512    1.026380   -0.486185
 C -1.854972   -0.469935   -0.371553
 O -1.437423   -0.860787    0.937017
 H -2.873207    1.353857    0.173697
 H -2.341067    1.296564   -1.506916
 H -1.160327    1.561016   -0.212623
 H -2.760680   -1.010665   -0.660175
 H -1.053350   -0.794160   -1.033097
 H -2.144242   -0.633817    1.550532

 --
0 1
 C  1.904331   -1.177250   -0.342938
 C  1.836223    0.330075   -0.558347
 C  1.726421    1.082880    0.762159
 H  2.783548   -1.439484    0.247554
 H  1.024423   -1.526221    0.198957
 H  1.964276   -1.717842   -1.287805
 H  0.977800    0.572694   -1.189523
 H  2.720982    0.666313   -1.103442
 H  1.663009    2.160629    0.609241
 H  0.840271    0.759449    1.309259
 H  2.597006    0.885069    1.389393

units angstrom

no_reorient
symmetry c1
}

set globals{
  basis jun-cc-pvtz
}

energy('sapt0')

--------------------------------------------------------------------------

  //              Dimer HF             //
    Molecular point group: c1
  Charge       = 0
  Multiplicity = 1
  Basis Set: JUN-CC-PVTZ
    Blend: JUN-CC-PVTZ
  Basis Set: (JUN-CC-PVTZ AUX)
    Blend: JUN-CC-PVTZ-JKFIT
  @DF-RHF Final Energy:  -272.45030776264639
    Total Energy =                       -272.4503077626463892
  //            Monomer A HF           //
    Molecular point group: c1
  Multiplicity = 1
  Basis Set: JUN-CC-PVTZ
    Blend: JUN-CC-PVTZ
  Basis Set: (JUN-CC-PVTZ AUX)
    Blend: JUN-CC-PVTZ-JKFIT
  @DF-RHF Final Energy:  -154.14441523014480
    Total Energy =                       -154.1444152301448014
  //            Monomer B HF           //
    Molecular point group: c1

    Geometry (in Angstrom), charge = 0, multiplicity = 1:

       Center              X                  Y                   Z               Mass
    ------------   -----------------  -----------------  -----------------  -----------------
      Gh(C)          -2.043944868120     1.049822996189    -0.502813880644    12.000000000000
      Gh(C)          -1.830404868120    -0.446492003811    -0.388181880644    12.000000000000
      Gh(O)          -1.412855868120    -0.837344003811     0.920388119356    15.994914619570
      Gh(H)          -2.848639868120     1.377299996189     0.157068119356     1.007825032230
      Gh(H)          -2.316499868120     1.320006996189    -1.523544880644     1.007825032230
      Gh(H)          -1.135759868120     1.584458996189    -0.229251880644     1.007825032230
      Gh(H)          -2.736112868120    -0.987222003811    -0.676803880644     1.007825032230
      Gh(H)          -1.028782868120    -0.770717003811    -1.049725880644     1.007825032230
      Gh(H)          -2.119674868120    -0.610374003811     1.533903119356     1.007825032230
         C            1.928898131880    -1.153807003811    -0.359566880644    12.000000000000
         C            1.860790131880     0.353517996189    -0.574975880644    12.000000000000
         C            1.750988131880     1.106322996189     0.745530119356    12.000000000000
         H            2.808115131880    -1.416041003811     0.230925119356     1.007825032230
         H            1.048990131880    -1.502778003811     0.182328119356     1.007825032230
         H            1.988843131880    -1.694399003811    -1.304433880644     1.007825032230
         H            1.002367131880     0.596136996189    -1.206151880644     1.007825032230
         H            2.745549131880     0.689755996189    -1.120070880644     1.007825032230
         H            1.687576131880     2.184071996189     0.592612119356     1.007825032230
         H            0.864838131880     0.782891996189     1.292630119356     1.007825032230
         H            2.621573131880     0.908511996189     1.372764119356     1.007825032230

  Charge       = 0
  Multiplicity = 1
  Basis Set: JUN-CC-PVTZ
    Blend: JUN-CC-PVTZ
  Basis Set: (JUN-CC-PVTZ AUX)
    Blend: JUN-CC-PVTZ-JKFIT

    Orbital Energies [Eh]
    ---------------------

    Doubly Occupied:

       1A    -11.215564     2A    -11.207940     3A    -11.207872
       4A     -1.054145     5A     -0.924407     6A     -0.799665
       7A     -0.624843     8A     -0.598674     9A     -0.548936
      10A     -0.530250    11A     -0.475911    12A     -0.474472
      13A     -0.467927

  @DF-RHF Final Energy:  -118.30800486935270

   => Energetics <=

    Nuclear Repulsion Energy =             82.8439950541484507
    One-Electron Energy =                -322.0427889873344611
    Two-Electron Energy =                 120.8907890638333100
    Total Energy =                       -118.3080048693527004

  Dipole Moment: [D]
     X:     0.0059      Y:     0.0365      Z:    -0.0746     Total:     0.0833

    SAPT Results
  --------------------------------------------------------------------------------------------------------
    Electrostatics                 -2.45330708 [mEh]      -1.53947343 [kcal/mol]      -6.44115684 [kJ/mol]
      Elst10,r                     -2.45330708 [mEh]      -1.53947343 [kcal/mol]      -6.44115684 [kJ/mol]

    Exchange                        5.41808852 [mEh]       3.39990188 [kcal/mol]      14.22518945 [kJ/mol]
      Exch10                        5.41808852 [mEh]       3.39990188 [kcal/mol]      14.22518945 [kJ/mol]
      Exch10(S^2)                   5.41118971 [mEh]       3.39557281 [kcal/mol]      14.20707662 [kJ/mol]

    Induction                      -0.85244459 [mEh]      -0.53491706 [kcal/mol]      -2.23809297 [kJ/mol]
      Ind20,r                      -1.35599358 [mEh]      -0.85089882 [kcal/mol]      -3.56016065 [kJ/mol]
      Exch-Ind20,r                  0.88458303 [mEh]       0.55508423 [kcal/mol]       2.32247244 [kJ/mol]
      delta HF,r (2)               -0.38103405 [mEh]      -0.23910248 [kcal/mol]      -1.00040476 [kJ/mol]

    Dispersion                     -6.09589227 [mEh]      -3.82523015 [kcal/mol]     -16.00476296 [kJ/mol]
      Disp20                       -6.67690035 [mEh]      -4.18981823 [kcal/mol]     -17.53019945 [kJ/mol]
      Exch-Disp20                   0.58100808 [mEh]       0.36458807 [kcal/mol]       1.52543650 [kJ/mol]
      Disp20 (SS)                  -3.33845018 [mEh]      -2.09490911 [kcal/mol]      -8.76509973 [kJ/mol]
      Disp20 (OS)                  -3.33845018 [mEh]      -2.09490911 [kcal/mol]      -8.76509973 [kJ/mol]
      Exch-Disp20 (SS)              0.37663391 [mEh]       0.23634135 [kcal/mol]       0.98885221 [kJ/mol]
      Exch-Disp20 (OS)              0.20437416 [mEh]       0.12824672 [kcal/mol]       0.53658429 [kJ/mol]

  Total HF                          2.11233685 [mEh]       1.32551139 [kcal/mol]       5.54593964 [kJ/mol]
  Total SAPT0                      -3.98355542 [mEh]      -2.49971877 [kcal/mol]     -10.45882332 [kJ/mol]

  Special recipe for scaled SAPT0 (see Manual):
    Electrostatics sSAPT0          -2.45330708 [mEh]      -1.53947343 [kcal/mol]      -6.44115684 [kJ/mol]
    Exchange sSAPT0                 5.41808852 [mEh]       3.39990188 [kcal/mol]      14.22518945 [kJ/mol]
    Induction sSAPT0               -0.84905697 [mEh]      -0.53279129 [kcal/mol]      -2.22919877 [kJ/mol]
    Dispersion sSAPT0              -6.09366723 [mEh]      -3.82383392 [kcal/mol]     -15.99892110 [kJ/mol]
  Total sSAPT0                     -3.97794275 [mEh]      -2.49619676 [kcal/mol]     -10.44408726 [kJ/mol]
  --------------------------------------------------------------------------------------------------------

*** Psi4 exiting successfully. Buy a developer a beer!
