                               Psi4 1.3.2 release

  ==> Input File <==

--------------------------------------------------------------------------
# Any line starting with the # character is a comment line
#! Sample  computation

memory 22 gb

molecule Dimer {
0 1
 C 2.459954    0.134261   -0.409212
 C 1.483562   -1.023795   -0.295605
 H 3.279905   -0.023112    0.297990
 H 2.903228    0.108542   -1.408062
 O 0.892844   -1.123714    1.001586
 H 0.646121   -0.877456   -0.978546
 H 1.973212   -1.964250   -0.564381
 H 1.594215   -1.340908    1.625240
 C 1.800912    1.483895   -0.157257
 H 2.524804    2.295086   -0.224233
 H 1.016190    1.671326   -0.891339
 H 1.344187    1.512463    0.830341

 --
0 1
 C  -2.419512   -1.059146   -0.419773
 C  -2.177641    0.437009   -0.581312
 C  -1.965589    1.121729    0.763470
 H  -1.580767   -1.527707    0.096587
 H  -3.316873   -1.239174    0.174288
 H  -2.552161   -1.553423   -1.382461
 H  -3.022135    0.894178   -1.101881
 H  -1.302491    0.600615   -1.214806
 H  -1.774885    2.188867    0.647407
 H  -2.847695    1.005248    1.395203
 H  -1.117716    0.675697    1.284106

units angstrom

no_reorient
symmetry c1
}

set globals{
  basis jun-cc-pvtz
}

energy('sapt0')

--------------------------------------------------------------------------

  //              Dimer HF             //
    Molecular point group: c1
  Charge       = 0
  Multiplicity = 1
  Basis Set: JUN-CC-PVTZ
    Blend: JUN-CC-PVTZ
  Basis Set: (JUN-CC-PVTZ AUX)
    Blend: JUN-CC-PVTZ-JKFIT
  @DF-RHF Final Energy:  -311.49757155867974
    Total Energy =                       -311.4975715586797378
  //            Monomer A HF           //
    Molecular point group: c1
  Multiplicity = 1
  Basis Set: JUN-CC-PVTZ
    Blend: JUN-CC-PVTZ
  Basis Set: (JUN-CC-PVTZ AUX)
    Blend: JUN-CC-PVTZ-JKFIT
  @DF-RHF Final Energy:  -193.19175007321394
    Total Energy =                       -193.1917500732139388
  //            Monomer B HF           //
    Molecular point group: c1

    Geometry (in Angstrom), charge = 0, multiplicity = 1:

       Center              X                  Y                   Z               Mass
    ------------   -----------------  -----------------  -----------------  -----------------
      Gh(C)           2.438720232284     0.157323767632    -0.422642629389    12.000000000000
      Gh(C)           1.462328232284    -1.000732232368    -0.309035629389    12.000000000000
      Gh(H)           3.258671232284    -0.000049232368     0.284559370611     1.007825032230
      Gh(H)           2.881994232284     0.131604767632    -1.421492629389     1.007825032230
      Gh(O)           0.871610232284    -1.100651232368     0.988155370611    15.994914619570
      Gh(H)           0.624887232284    -0.854393232368    -0.991976629389     1.007825032230
      Gh(H)           1.951978232284    -1.941187232368    -0.577811629389     1.007825032230
      Gh(H)           1.572981232284    -1.317845232368     1.611809370611     1.007825032230
      Gh(C)           1.779678232284     1.506957767632    -0.170687629389    12.000000000000
      Gh(H)           2.503570232284     2.318148767632    -0.237663629389     1.007825032230
      Gh(H)           0.994956232284     1.694388767632    -0.904769629389     1.007825032230
      Gh(H)           1.322953232284     1.535525767632     0.816910370611     1.007825032230
         C           -2.440745767716    -1.036083232368    -0.433203629389    12.000000000000
         C           -2.198874767716     0.460071767632    -0.594742629389    12.000000000000
         C           -1.986822767716     1.144791767632     0.750039370611    12.000000000000
         H           -1.602000767716    -1.504644232368     0.083156370611     1.007825032230
         H           -3.338106767716    -1.216111232368     0.160857370611     1.007825032230
         H           -2.573394767716    -1.530360232368    -1.395891629389     1.007825032230
         H           -3.043368767716     0.917240767632    -1.115311629389     1.007825032230
         H           -1.323724767716     0.623677767632    -1.228236629389     1.007825032230
         H           -1.796118767716     2.211929767632     0.633976370611     1.007825032230
         H           -2.868928767716     1.028310767632     1.381772370611     1.007825032230
         H           -1.138949767716     0.698759767632     1.270675370611     1.007825032230

  Charge       = 0
  Multiplicity = 1
  Basis Set: JUN-CC-PVTZ
    Blend: JUN-CC-PVTZ
  Basis Set: (JUN-CC-PVTZ AUX)
    Blend: JUN-CC-PVTZ-JKFIT

    Orbital Energies [Eh]
    ---------------------

    Doubly Occupied:

       1A    -11.215520     2A    -11.207933     3A    -11.207870
       4A     -1.054178     5A     -0.924423     6A     -0.799569
       7A     -0.624953     8A     -0.598700     9A     -0.548877
      10A     -0.530359    11A     -0.475772    12A     -0.474513
      13A     -0.467945

  @DF-RHF Final Energy:  -118.30800070180200

   => Energetics <=

    Nuclear Repulsion Energy =             82.8467678210948151
    One-Electron Energy =                -322.0483148477305804
    Two-Electron Energy =                 120.8935463248337498
    Total Energy =                       -118.3080007018020012

  Dipole Moment: [D]
     X:    -0.0008      Y:     0.0402      Z:    -0.0735     Total:     0.0838

    SAPT Results
  --------------------------------------------------------------------------------------------------------
    Electrostatics                 -2.47745872 [mEh]      -1.55462882 [kcal/mol]      -6.50456698 [kJ/mol]
      Elst10,r                     -2.47745872 [mEh]      -1.55462882 [kcal/mol]      -6.50456698 [kJ/mol]

    Exchange                        5.58413696 [mEh]       3.50409884 [kcal/mol]      14.66114956 [kJ/mol]
      Exch10                        5.58413696 [mEh]       3.50409884 [kcal/mol]      14.66114956 [kJ/mol]
      Exch10(S^2)                   5.57752193 [mEh]       3.49994785 [kcal/mol]      14.64378182 [kJ/mol]

    Induction                      -0.92746190 [mEh]      -0.58199113 [kcal/mol]      -2.43505088 [kJ/mol]
      Ind20,r                      -1.38600636 [mEh]      -0.86973212 [kcal/mol]      -3.63895919 [kJ/mol]
      Exch-Ind20,r                  0.86775209 [mEh]       0.54452266 [kcal/mol]       2.27828280 [kJ/mol]
      delta HF,r (2)               -0.40920763 [mEh]      -0.25678167 [kcal/mol]      -1.07437449 [kJ/mol]

    Dispersion                     -6.42923490 [mEh]      -4.03440581 [kcal/mol]     -16.87995389 [kJ/mol]
      Disp20                       -7.02570467 [mEh]      -4.40869624 [kcal/mol]     -18.44598508 [kJ/mol]
      Exch-Disp20                   0.59646978 [mEh]       0.37429044 [kcal/mol]       1.56603118 [kJ/mol]
      Disp20 (SS)                  -3.51285234 [mEh]      -2.20434812 [kcal/mol]      -9.22299254 [kJ/mol]
      Disp20 (OS)                  -3.51285234 [mEh]      -2.20434812 [kcal/mol]      -9.22299254 [kJ/mol]
      Exch-Disp20 (SS)              0.38797909 [mEh]       0.24346055 [kcal/mol]       1.01863895 [kJ/mol]
      Exch-Disp20 (OS)              0.20849069 [mEh]       0.13082988 [kcal/mol]       0.54739223 [kJ/mol]

  Total HF                          2.17921634 [mEh]       1.36747890 [kcal/mol]       5.72153170 [kJ/mol]
  Total SAPT0                      -4.25001856 [mEh]      -2.66692691 [kcal/mol]     -11.15842219 [kJ/mol]

  Special recipe for scaled SAPT0 (see Manual):
    Electrostatics sSAPT0          -2.47745872 [mEh]      -1.55462882 [kcal/mol]      -6.50456698 [kJ/mol]
    Exchange sSAPT0                 5.58413696 [mEh]       3.50409884 [kcal/mol]      14.66114956 [kJ/mol]
    Induction sSAPT0               -0.92437074 [mEh]      -0.58005139 [kcal/mol]      -2.42693503 [kJ/mol]
    Dispersion sSAPT0              -6.42711011 [mEh]      -4.03307248 [kcal/mol]     -16.87437528 [kJ/mol]
  Total sSAPT0                     -4.24480261 [mEh]      -2.66365385 [kcal/mol]     -11.14472773 [kJ/mol]
  --------------------------------------------------------------------------------------------------------

*** Psi4 exiting successfully. Buy a developer a beer!
