                               Psi4 1.3.2 release

  ==> Input File <==

--------------------------------------------------------------------------
# Any line starting with the # character is a comment line
#! Sample  computation

memory 22 gb

molecule Dimer {
0 1
 C 2.162689   -0.114844   -0.768437
 C 1.565004   -1.337949   -0.091634
 H 3.094696    0.160223   -0.261751
 H 2.443969   -0.420801   -1.780510
 O 1.287908   -1.161466    1.298684
 H 0.602603   -1.578166   -0.544868
 H 2.223994   -2.199645   -0.237000
 H 2.124047   -0.980584    1.741386
 C 1.239186    1.100595   -0.850238
 H 1.641616    1.789243   -1.596697
 H 0.264668    0.776168   -1.226553
 C 1.060389    1.852468    0.465381
 H 2.029018    2.172848    0.854244
 H 0.450013    2.744203    0.321862
 H 0.585625    1.227933    1.218113

 --
0 1
 C  -2.578831    1.101256    0.269280
 C  -2.195448   -0.361158    0.459141
 C  -2.348203   -1.159405   -0.830111
 H  -1.952885    1.570447   -0.491648
 H  -3.616786    1.190969   -0.055415
 H  -2.464030    1.670126    1.191769
 H  -2.822384   -0.804341    1.235746
 H  -1.167249   -0.432172    0.819116
 H  -2.067071   -2.203797   -0.693031
 H  -3.380375   -1.133566   -1.183198
 H  -1.721450   -0.743134   -1.621329

units angstrom

no_reorient
symmetry c1
}

set globals{
  basis jun-cc-pvtz
}

energy('sapt0')

--------------------------------------------------------------------------

  //              Dimer HF             //
    Molecular point group: c1
  Charge       = 0
  Multiplicity = 1
  Basis Set: JUN-CC-PVTZ
    Blend: JUN-CC-PVTZ
  Basis Set: (JUN-CC-PVTZ AUX)
    Blend: JUN-CC-PVTZ-JKFIT
  @DF-RHF Final Energy:  -350.54108640575862
    Total Energy =                       -350.5410864057586195
  //            Monomer A HF           //
    Molecular point group: c1
  Multiplicity = 1
  Basis Set: JUN-CC-PVTZ
    Blend: JUN-CC-PVTZ
  Basis Set: (JUN-CC-PVTZ AUX)
    Blend: JUN-CC-PVTZ-JKFIT
  @DF-RHF Final Energy:  -232.23629748995035
    Total Energy =                       -232.2362974899503456
  //            Monomer B HF           //
    Molecular point group: c1

    Geometry (in Angstrom), charge = 0, multiplicity = 1:

       Center              X                  Y                   Z               Mass
    ------------   -----------------  -----------------  -----------------  -----------------
      Gh(C)           2.131401043977    -0.091327981643    -0.787779878223    12.000000000000
      Gh(C)           1.533716043977    -1.314432981643    -0.110976878223    12.000000000000
      Gh(H)           3.063408043977     0.183739018357    -0.281093878223     1.007825032230
      Gh(H)           2.412681043977    -0.397284981643    -1.799852878223     1.007825032230
      Gh(O)           1.256620043977    -1.137949981643     1.279341121777    15.994914619570
      Gh(H)           0.571315043977    -1.554649981643    -0.564210878223     1.007825032230
      Gh(H)           2.192706043977    -2.176128981643    -0.256342878223     1.007825032230
      Gh(H)           2.092759043977    -0.957067981643     1.722043121777     1.007825032230
      Gh(C)           1.207898043977     1.124111018357    -0.869580878223    12.000000000000
      Gh(H)           1.610328043977     1.812759018357    -1.616039878223     1.007825032230
      Gh(H)           0.233380043977     0.799684018357    -1.245895878223     1.007825032230
      Gh(C)           1.029101043977     1.875984018357     0.446038121777    12.000000000000
      Gh(H)           1.997730043977     2.196364018357     0.834901121777     1.007825032230
      Gh(H)           0.418725043977     2.767719018357     0.302519121777     1.007825032230
      Gh(H)           0.554337043977     1.251449018357     1.198770121777     1.007825032230
         C           -2.610118956023     1.124772018357     0.249937121777    12.000000000000
         C           -2.226735956023    -0.337641981643     0.439798121777    12.000000000000
         C           -2.379490956023    -1.135888981643    -0.849453878223    12.000000000000
         H           -1.984172956023     1.593963018357    -0.510990878223     1.007825032230
         H           -3.648073956023     1.214485018357    -0.074757878223     1.007825032230
         H           -2.495317956023     1.693642018357     1.172426121777     1.007825032230
         H           -2.853671956023    -0.780824981643     1.216403121777     1.007825032230
         H           -1.198536956023    -0.408655981643     0.799773121777     1.007825032230
         H           -2.098358956023    -2.180280981643    -0.712373878223     1.007825032230
         H           -3.411662956023    -1.110049981643    -1.202540878223     1.007825032230
         H           -1.752737956023    -0.719617981643    -1.640671878223     1.007825032230

  Charge       = 0
  Multiplicity = 1
  Basis Set: JUN-CC-PVTZ
    Blend: JUN-CC-PVTZ
  Basis Set: (JUN-CC-PVTZ AUX)
    Blend: JUN-CC-PVTZ-JKFIT

    Orbital Energies [Eh]
    ---------------------

    Doubly Occupied:

       1A    -11.215691     2A    -11.207976     3A    -11.207913
       4A     -1.053942     5A     -0.924585     6A     -0.800075
       7A     -0.624346     8A     -0.598235     9A     -0.549497
      10A     -0.529786    11A     -0.476302    12A     -0.474462
      13A     -0.467852

  @DF-RHF Final Energy:  -118.30807984178195

   => Energetics <=

    Nuclear Repulsion Energy =             82.8115511792952361
    One-Electron Energy =                -321.9779345282643135
    Two-Electron Energy =                 120.8583035071871308
    Total Energy =                       -118.3080798417819466

  Dipole Moment: [D]
     X:     0.0239      Y:    -0.0324      Z:     0.0743     Total:     0.0845

    SAPT Results
  --------------------------------------------------------------------------------------------------------
    Electrostatics                 -2.34291851 [mEh]      -1.47020356 [kcal/mol]      -6.15133170 [kJ/mol]
      Elst10,r                     -2.34291851 [mEh]      -1.47020356 [kcal/mol]      -6.15133170 [kJ/mol]

    Exchange                        6.43010239 [mEh]       4.03495017 [kcal/mol]      16.88223150 [kJ/mol]
      Exch10                        6.43010239 [mEh]       4.03495017 [kcal/mol]      16.88223150 [kJ/mol]
      Exch10(S^2)                   6.41832084 [mEh]       4.02755713 [kcal/mol]      16.85129905 [kJ/mol]

    Induction                      -0.79625791 [mEh]      -0.49965938 [kcal/mol]      -2.09057485 [kJ/mol]
      Ind20,r                      -1.35858318 [mEh]      -0.85252381 [kcal/mol]      -3.56695964 [kJ/mol]
      Exch-Ind20,r                  1.04069668 [mEh]       0.65304703 [kcal/mol]       2.73234877 [kJ/mol]
      delta HF,r (2)               -0.47837141 [mEh]      -0.30018259 [kcal/mol]      -1.25596398 [kJ/mol]

    Dispersion                     -7.89255848 [mEh]      -4.95265522 [kcal/mol]     -20.72190945 [kJ/mol]
      Disp20                       -8.61505403 [mEh]      -5.40602802 [kcal/mol]     -22.61882125 [kJ/mol]
      Exch-Disp20                   0.72249555 [mEh]       0.45337280 [kcal/mol]       1.89691180 [kJ/mol]
      Disp20 (SS)                  -4.30752702 [mEh]      -2.70301401 [kcal/mol]     -11.30941062 [kJ/mol]
      Disp20 (OS)                  -4.30752702 [mEh]      -2.70301401 [kcal/mol]     -11.30941062 [kJ/mol]
      Exch-Disp20 (SS)              0.46916312 [mEh]       0.29440430 [kcal/mol]       1.23178759 [kJ/mol]
      Exch-Disp20 (OS)              0.25333243 [mEh]       0.15896850 [kcal/mol]       0.66512421 [kJ/mol]

  Total HF                          3.29092597 [mEh]       2.06508723 [kcal/mol]       8.64032495 [kJ/mol]
  Total SAPT0                      -4.60163251 [mEh]      -2.88756800 [kcal/mol]     -12.08158449 [kJ/mol]

  Special recipe for scaled SAPT0 (see Manual):
    Electrostatics sSAPT0          -2.34291851 [mEh]      -1.47020356 [kcal/mol]      -6.15133170 [kJ/mol]
    Exchange sSAPT0                 6.43010239 [mEh]       4.03495017 [kcal/mol]      16.88223150 [kJ/mol]
    Induction sSAPT0               -0.79051643 [mEh]      -0.49605655 [kcal/mol]      -2.07550061 [kJ/mol]
    Dispersion sSAPT0              -7.88857251 [mEh]      -4.95015399 [kcal/mol]     -20.71144428 [kJ/mol]
  Total sSAPT0                     -4.59190507 [mEh]      -2.88146393 [kcal/mol]     -12.05604509 [kJ/mol]
  --------------------------------------------------------------------------------------------------------

*** Psi4 exiting successfully. Buy a developer a beer!
