                               Psi4 1.3.2 release

  ==> Input File <==

--------------------------------------------------------------------------
# Any line starting with the # character is a comment line
#! Sample  computation

memory 22 gb

molecule Dimer {
0 1
 H -2.269297   -1.126499   -0.980972
 C -2.263474    1.030462   -0.486727
 C -2.098735   -0.418963   -0.148975
 O -1.801945   -0.837755    0.953491
 H -2.021046    1.654351    0.368976
 H -1.624458    1.282094   -1.334371
 H -3.294062    1.207350   -0.800390

 --
0 1
 C   1.380642   -1.938170   -0.192021
 H   0.508638   -2.124439    0.435464
 H   2.269685   -2.195221    0.385293
 H   1.333907   -2.609961   -1.049183
 C   1.429001   -0.477832   -0.623846
 H   2.297161   -0.306813   -1.266898
 H   0.550574   -0.241796   -1.233501
 C   1.486764    0.478436    0.560810
 H   2.359631    0.231740    1.171355
 H   0.610304    0.315620    1.193183
 C   1.559389    1.938375    0.130669
 H   0.689544    2.211273   -0.468977
 H   1.595844    2.609570    0.988508
 H   2.447601    2.120928   -0.475873

units angstrom

no_reorient
symmetry c1
}

set globals{
  basis jun-cc-pvtz
}

energy('sapt0')

--------------------------------------------------------------------------

  //              Dimer HF             //
    Molecular point group: c1
  Charge       = 0
  Multiplicity = 1
  Basis Set: JUN-CC-PVTZ
    Blend: JUN-CC-PVTZ
  Basis Set: (JUN-CC-PVTZ AUX)
    Blend: JUN-CC-PVTZ-JKFIT
  @DF-RHF Final Energy:  -310.32900628016756
    Total Energy =                       -310.3290062801675617
  //            Monomer A HF           //
    Molecular point group: c1
  Multiplicity = 1
  Basis Set: JUN-CC-PVTZ
    Blend: JUN-CC-PVTZ
  Basis Set: (JUN-CC-PVTZ AUX)
    Blend: JUN-CC-PVTZ-JKFIT
  @DF-RHF Final Energy:  -152.97579014517251
    Total Energy =                       -152.9757901451724820
  //            Monomer B HF           //
    Molecular point group: c1

    Geometry (in Angstrom), charge = 0, multiplicity = 1:

       Center              X                  Y                   Z               Mass
    ------------   -----------------  -----------------  -----------------  -----------------
      Gh(H)          -2.216388358922    -1.097115065067    -1.010731117186     1.007825032230
      Gh(C)          -2.210565358922     1.059845934933    -0.516486117186    12.000000000000
      Gh(C)          -2.045826358922    -0.389579065067    -0.178734117186    12.000000000000
      Gh(O)          -1.749036358922    -0.808371065067     0.923731882814    15.994914619570
      Gh(H)          -1.968137358922     1.683734934933     0.339216882814     1.007825032230
      Gh(H)          -1.571549358922     1.311477934933    -1.364130117186     1.007825032230
      Gh(H)          -3.241153358922     1.236733934933    -0.830149117186     1.007825032230
         C            1.433550641078    -1.908786065067    -0.221780117186    12.000000000000
         H            0.561546641078    -2.095055065067     0.405704882814     1.007825032230
         H            2.322593641078    -2.165837065067     0.355533882814     1.007825032230
         H            1.386815641078    -2.580577065067    -1.078942117186     1.007825032230
         C            1.481909641078    -0.448448065067    -0.653605117186    12.000000000000
         H            2.350069641078    -0.277429065067    -1.296657117186     1.007825032230
         H            0.603482641078    -0.212412065067    -1.263260117186     1.007825032230
         C            1.539672641078     0.507819934933     0.531050882814    12.000000000000
         H            2.412539641078     0.261123934933     1.141595882814     1.007825032230
         H            0.663212641078     0.345003934933     1.163423882814     1.007825032230
         C            1.612297641078     1.967758934933     0.100909882814    12.000000000000
         H            0.742452641078     2.240656934933    -0.498736117186     1.007825032230
         H            1.648752641078     2.638953934933     0.958748882814     1.007825032230
         H            2.500509641078     2.150311934933    -0.505632117186     1.007825032230

  Charge       = 0
  Multiplicity = 1
  Basis Set: JUN-CC-PVTZ
    Blend: JUN-CC-PVTZ
  Basis Set: (JUN-CC-PVTZ AUX)
    Blend: JUN-CC-PVTZ-JKFIT

    Orbital Energies [Eh]
    ---------------------

    Doubly Occupied:

       1A    -11.213448     2A    -11.212824     3A    -11.207632
       4A    -11.207564     5A     -1.071341     6A     -0.980248
       7A     -0.860215     8A     -0.787476     9A     -0.638827
      10A     -0.584250    11A     -0.575541    12A     -0.566933
      13A     -0.514153    14A     -0.494144    15A     -0.469517
      16A     -0.461356    17A     -0.455860

  @DF-RHF Final Energy:  -157.35590346650159

   => Energetics <=

    Nuclear Repulsion Energy =            131.0806653006157774
    One-Electron Energy =                -470.2704780796593695
    Two-Electron Energy =                 181.8339093125419765
    Total Energy =                       -157.3559034665015872

  Dipole Moment: [D]
     X:     0.0018      Y:     0.0009      Z:    -0.0000     Total:     0.0020

    SAPT Results
  --------------------------------------------------------------------------------------------------------
    Electrostatics                 -2.36673708 [mEh]      -1.48514994 [kcal/mol]      -6.21386735 [kJ/mol]
      Elst10,r                     -2.36673708 [mEh]      -1.48514994 [kcal/mol]      -6.21386735 [kJ/mol]

    Exchange                        6.20127750 [mEh]       3.89136038 [kcal/mol]      16.28145184 [kJ/mol]
      Exch10                        6.20127750 [mEh]       3.89136038 [kcal/mol]      16.28145184 [kJ/mol]
      Exch10(S^2)                   6.19047116 [mEh]       3.88457930 [kcal/mol]      16.25307979 [kJ/mol]

    Induction                      -1.14720892 [mEh]      -0.71988446 [kcal/mol]      -3.01199659 [kJ/mol]
      Ind20,r                      -1.92950714 [mEh]      -1.21078401 [kcal/mol]      -5.06592031 [kJ/mol]
      Exch-Ind20,r                  1.24700914 [mEh]       0.78251005 [kcal/mol]       3.27402204 [kJ/mol]
      delta HF,r (2)               -0.46471091 [mEh]      -0.29161050 [kcal/mol]      -1.22009833 [kJ/mol]

    Dispersion                     -6.84341777 [mEh]      -4.29430949 [kcal/mol]     -17.96739089 [kJ/mol]
      Disp20                       -7.51736029 [mEh]      -4.71721480 [kcal/mol]     -19.73682673 [kJ/mol]
      Exch-Disp20                   0.67394252 [mEh]       0.42290532 [kcal/mol]       1.76943585 [kJ/mol]
      Disp20 (SS)                  -3.75868015 [mEh]      -2.35860740 [kcal/mol]      -9.86841337 [kJ/mol]
      Disp20 (OS)                  -3.75868015 [mEh]      -2.35860740 [kcal/mol]      -9.86841337 [kJ/mol]
      Exch-Disp20 (SS)              0.43360364 [mEh]       0.27209039 [kcal/mol]       1.13842619 [kJ/mol]
      Exch-Disp20 (OS)              0.24033888 [mEh]       0.15081493 [kcal/mol]       0.63100965 [kJ/mol]

  Total HF                          2.68733151 [mEh]       1.68632598 [kcal/mol]       7.05558790 [kJ/mol]
  Total SAPT0                      -4.15608627 [mEh]      -2.60798351 [kcal/mol]     -10.91180299 [kJ/mol]

  Special recipe for scaled SAPT0 (see Manual):
    Electrostatics sSAPT0          -2.36673708 [mEh]      -1.48514994 [kcal/mol]      -6.21386735 [kJ/mol]
    Exchange sSAPT0                 6.20127750 [mEh]       3.89136038 [kcal/mol]      16.28145184 [kJ/mol]
    Induction sSAPT0               -1.14066701 [mEh]      -0.71577936 [kcal/mol]      -2.99482083 [kJ/mol]
    Dispersion sSAPT0              -6.83988222 [mEh]      -4.29209089 [kcal/mol]     -17.95810830 [kJ/mol]
  Total sSAPT0                     -4.14600881 [mEh]      -2.60165981 [kcal/mol]     -10.88534464 [kJ/mol]
  --------------------------------------------------------------------------------------------------------

*** Psi4 exiting successfully. Buy a developer a beer!
