                               Psi4 1.3.2 release

  ==> Input File <==

--------------------------------------------------------------------------
# Any line starting with the # character is a comment line
#! Sample  computation

memory 22 gb

molecule Dimer {
0 1
 H -1.151055   -1.942351    1.059607
 C -2.105049    0.037537    0.784360
 C -1.440301   -1.211255    0.281593
 O -1.214112   -1.444894   -0.890470
 H -1.425352    0.486726    1.516001
 C -2.479286    1.014089   -0.315773
 H -1.596184    1.327710   -0.869152
 H -3.162987    0.550726   -1.024514
 H -2.957606    1.897963    0.102159
 H -2.979173   -0.279463    1.362613

 --
0 1
 C   2.270362   -1.565080   -0.004792
 H   3.139186   -1.491555   -0.660188
 H   1.443851   -1.969684   -0.589887
 H   2.508799   -2.276003    0.786344
 C   1.909988   -0.196318    0.559181
 H   1.060315   -0.288635    1.243546
 H   2.738705    0.191293    1.158653
 C   1.566777    0.811181   -0.530969
 H   0.739528    0.420456   -1.129495
 H   2.420050    0.903823   -1.208353
 C   1.208449    2.181205    0.031485
 H   2.040524    2.595699    0.602436
 H   0.958789    2.889254   -0.758701
 H   0.349877    2.115042    0.702172

units angstrom

no_reorient
symmetry c1
}

set globals{
  basis jun-cc-pvtz
}

energy('sapt0')

--------------------------------------------------------------------------

  //              Dimer HF             //
    Molecular point group: c1
  Charge       = 0
  Multiplicity = 1
  Basis Set: JUN-CC-PVTZ
    Blend: JUN-CC-PVTZ
  Basis Set: (JUN-CC-PVTZ AUX)
    Blend: JUN-CC-PVTZ-JKFIT
  @DF-RHF Final Energy:  -349.37671732727495
    Total Energy =                       -349.3767173272749460
  //            Monomer A HF           //
    Molecular point group: c1
  Multiplicity = 1
  Basis Set: JUN-CC-PVTZ
    Blend: JUN-CC-PVTZ
  Basis Set: (JUN-CC-PVTZ AUX)
    Blend: JUN-CC-PVTZ-JKFIT
  @DF-RHF Final Energy:  -192.02436903080320
    Total Energy =                       -192.0243690308032001
  //            Monomer B HF           //
    Molecular point group: c1

    Geometry (in Angstrom), charge = 0, multiplicity = 1:

       Center              X                  Y                   Z               Mass
    ------------   -----------------  -----------------  -----------------  -----------------
      Gh(H)          -1.115843402280    -1.898573081676     1.079162491604     1.007825032230
      Gh(C)          -2.069837402280     0.081314918324     0.803915491604    12.000000000000
      Gh(C)          -1.405089402280    -1.167477081676     0.301148491604    12.000000000000
      Gh(O)          -1.178900402280    -1.401116081676    -0.870914508396    15.994914619570
      Gh(H)          -1.390140402280     0.530503918324     1.535556491604     1.007825032230
      Gh(C)          -2.444074402280     1.057866918324    -0.296217508396    12.000000000000
      Gh(H)          -1.560972402280     1.371487918324    -0.849596508396     1.007825032230
      Gh(H)          -3.127775402280     0.594503918324    -1.004958508396     1.007825032230
      Gh(H)          -2.922394402280     1.941740918324     0.121714491604     1.007825032230
      Gh(H)          -2.943961402280    -0.235685081676     1.382168491604     1.007825032230
         C            2.305573597720    -1.521302081676     0.014763491604    12.000000000000
         H            3.174397597720    -1.447777081676    -0.640632508396     1.007825032230
         H            1.479062597720    -1.925906081676    -0.570331508396     1.007825032230
         H            2.544010597720    -2.232225081676     0.805899491604     1.007825032230
         C            1.945199597720    -0.152540081676     0.578736491604    12.000000000000
         H            1.095526597720    -0.244857081676     1.263101491604     1.007825032230
         H            2.773916597720     0.235070918324     1.178208491604     1.007825032230
         C            1.601988597720     0.854958918324    -0.511413508396    12.000000000000
         H            0.774739597720     0.464233918324    -1.109939508396     1.007825032230
         H            2.455261597720     0.947600918324    -1.188797508396     1.007825032230
         C            1.243660597720     2.224982918324     0.051040491604    12.000000000000
         H            2.075735597720     2.639476918324     0.621991491604     1.007825032230
         H            0.994000597720     2.933031918324    -0.739145508396     1.007825032230
         H            0.385088597720     2.158819918324     0.721727491604     1.007825032230

  Charge       = 0
  Multiplicity = 1
  Basis Set: JUN-CC-PVTZ
    Blend: JUN-CC-PVTZ
  Basis Set: (JUN-CC-PVTZ AUX)
    Blend: JUN-CC-PVTZ-JKFIT

    Orbital Energies [Eh]
    ---------------------

    Doubly Occupied:

       1A    -11.213478     2A    -11.212851     3A    -11.207710
       4A    -11.207595     5A     -1.071317     6A     -0.980205
       7A     -0.860212     8A     -0.787543     9A     -0.638697
      10A     -0.584236    11A     -0.575570    12A     -0.566834
      13A     -0.514196    14A     -0.494038    15A     -0.469669
      16A     -0.461256    17A     -0.455877

  @DF-RHF Final Energy:  -157.35590492576762

   => Energetics <=

    Nuclear Repulsion Energy =            131.0760551499841426
    One-Electron Energy =                -470.2613482077189815
    Two-Electron Energy =                 181.8293881319672209
    Total Energy =                       -157.3559049257676179

  Dipole Moment: [D]
     X:     0.0037      Y:     0.0019      Z:    -0.0000     Total:     0.0041

    SAPT Results
  --------------------------------------------------------------------------------------------------------
    Electrostatics                 -2.74172280 [mEh]      -1.72045703 [kcal/mol]      -7.19839222 [kJ/mol]
      Elst10,r                     -2.74172280 [mEh]      -1.72045703 [kcal/mol]      -7.19839222 [kJ/mol]

    Exchange                        7.51121147 [mEh]       4.71335636 [kcal/mol]      19.72068301 [kJ/mol]
      Exch10                        7.51121147 [mEh]       4.71335636 [kcal/mol]      19.72068301 [kJ/mol]
      Exch10(S^2)                   7.49854708 [mEh]       4.70540933 [kcal/mol]      19.68743264 [kJ/mol]

    Induction                      -1.21285938 [mEh]      -0.76108075 [kcal/mol]      -3.18436186 [kJ/mol]
      Ind20,r                      -2.09303021 [mEh]      -1.31339629 [kcal/mol]      -5.49525007 [kJ/mol]
      Exch-Ind20,r                  1.42392665 [mEh]       0.89352746 [kcal/mol]       3.73851891 [kJ/mol]
      delta HF,r (2)               -0.54375582 [mEh]      -0.34121193 [kcal/mol]      -1.42763070 [kJ/mol]

    Dispersion                     -8.64186911 [mEh]      -5.42285474 [kcal/mol]     -22.68922423 [kJ/mol]
      Disp20                       -9.47060966 [mEh]      -5.94289729 [kcal/mol]     -24.86508224 [kJ/mol]
      Exch-Disp20                   0.82874055 [mEh]       0.52004255 [kcal/mol]       2.17585801 [kJ/mol]
      Disp20 (SS)                  -4.73530483 [mEh]      -2.97144864 [kcal/mol]     -12.43254112 [kJ/mol]
      Disp20 (OS)                  -4.73530483 [mEh]      -2.97144864 [kcal/mol]     -12.43254112 [kJ/mol]
      Exch-Disp20 (SS)              0.53665692 [mEh]       0.33675730 [kcal/mol]       1.40899255 [kJ/mol]
      Exch-Disp20 (OS)              0.29208363 [mEh]       0.18328524 [kcal/mol]       0.76686546 [kJ/mol]

  Total HF                          3.55662930 [mEh]       2.23181858 [kcal/mol]       9.33792893 [kJ/mol]
  Total SAPT0                      -5.08523982 [mEh]      -3.19103616 [kcal/mol]     -13.35129530 [kJ/mol]

  Special recipe for scaled SAPT0 (see Manual):
    Electrostatics sSAPT0          -2.74172280 [mEh]      -1.72045703 [kcal/mol]      -7.19839222 [kJ/mol]
    Exchange sSAPT0                 7.51121147 [mEh]       4.71335636 [kcal/mol]      19.72068301 [kJ/mol]
    Induction sSAPT0               -1.20563252 [mEh]      -0.75654583 [kcal/mol]      -3.16538774 [kJ/mol]
    Dispersion sSAPT0              -8.63766300 [mEh]      -5.42021537 [kcal/mol]     -22.67818109 [kJ/mol]
  Total sSAPT0                     -5.07380685 [mEh]      -3.18386187 [kcal/mol]     -13.32127805 [kJ/mol]
  --------------------------------------------------------------------------------------------------------

*** Psi4 exiting successfully. Buy a developer a beer!
