                               Psi4 1.3.2 release

  ==> Input File <==

--------------------------------------------------------------------------
# Any line starting with the # character is a comment line
#! Sample  computation

memory 22 gb

molecule Dimer {
0 1
 H -0.100082   -2.368753    1.086875
 C -1.594116   -0.776999    0.713901
 C -0.565422   -1.778093    0.275248
 O -0.231236   -1.960381   -0.880219
 H -1.109657   -0.118717    1.444927
 C -2.218359    0.019638   -0.417866
 H -1.428443    0.517168   -0.981684
 H -2.701561   -0.667822   -1.113568
 H -2.354721   -1.323508    1.283795
 C -3.220202    1.042661    0.101270
 H -4.025873    0.556909    0.653404
 H -2.737802    1.753597    0.773617
 H -3.667736    1.607295   -0.715603

 --
0 1
 C    3.072018   -0.848758    0.070472
 H    3.880712   -0.497022   -0.571487
 H    2.451537   -1.527781   -0.515319
 H    3.517733   -1.414183    0.888848
 C    2.247220    0.325660    0.582237
 H    1.461497   -0.037230    1.252824
 H    2.874405    0.989614    1.184070
 C    1.610511    1.125617   -0.547379
 H    0.988267    0.457839   -1.149138
 H    2.399392    1.491816   -1.210059
 C    0.783442    2.299937   -0.038627
 H    1.403846    2.993541    0.530800
 H    0.324163    2.855119   -0.856659
 H   -0.016334    1.957190    0.620581

units angstrom

no_reorient
symmetry c1
}

set globals{
  basis jun-cc-pvtz
}

energy('sapt0')

--------------------------------------------------------------------------

  //              Dimer HF             //
    Molecular point group: c1
  Charge       = 0
  Multiplicity = 1
  Basis Set: JUN-CC-PVTZ
    Blend: JUN-CC-PVTZ
  Basis Set: (JUN-CC-PVTZ AUX)
    Blend: JUN-CC-PVTZ-JKFIT
  @DF-RHF Final Energy:  -388.42382794384804
    Total Energy =                       -388.4238279438480959
  //            Monomer A HF           //
    Molecular point group: c1
  Multiplicity = 1
  Basis Set: JUN-CC-PVTZ
    Blend: JUN-CC-PVTZ
  Basis Set: (JUN-CC-PVTZ AUX)
    Blend: JUN-CC-PVTZ-JKFIT
  @DF-RHF Final Energy:  -231.07195075985751
    Total Energy =                       -231.0719507598575149
  //            Monomer B HF           //
    Molecular point group: c1

    Geometry (in Angstrom), charge = 0, multiplicity = 1:

       Center              X                  Y                   Z               Mass
    ------------   -----------------  -----------------  -----------------  -----------------
      Gh(H)          -0.091252135444    -2.313744584100     1.106710730483     1.007825032230
      Gh(C)          -1.585286135444    -0.721990584100     0.733736730483    12.000000000000
      Gh(C)          -0.556592135444    -1.723084584100     0.295083730483    12.000000000000
      Gh(O)          -0.222406135444    -1.905372584100    -0.860383269517    15.994914619570
      Gh(H)          -1.100827135444    -0.063708584100     1.464762730483     1.007825032230
      Gh(C)          -2.209529135444     0.074646415900    -0.398030269517    12.000000000000
      Gh(H)          -1.419613135444     0.572176415900    -0.961848269517     1.007825032230
      Gh(H)          -2.692731135444    -0.612813584100    -1.093732269517     1.007825032230
      Gh(H)          -2.345891135444    -1.268499584100     1.303630730483     1.007825032230
      Gh(C)          -3.211372135444     1.097669415900     0.121105730483    12.000000000000
      Gh(H)          -4.017043135444     0.611917415900     0.673239730483     1.007825032230
      Gh(H)          -2.728972135444     1.808605415900     0.793452730483     1.007825032230
      Gh(H)          -3.658906135444     1.662303415900    -0.695767269517     1.007825032230
         C            3.080847864556    -0.793749584100     0.090307730483    12.000000000000
         H            3.889541864556    -0.442013584100    -0.551651269517     1.007825032230
         H            2.460366864556    -1.472772584100    -0.495483269517     1.007825032230
         H            3.526562864556    -1.359174584100     0.908683730483     1.007825032230
         C            2.256049864556     0.380668415900     0.602072730483    12.000000000000
         H            1.470326864556     0.017778415900     1.272659730483     1.007825032230
         H            2.883234864556     1.044622415900     1.203905730483     1.007825032230
         C            1.619340864556     1.180625415900    -0.527543269517    12.000000000000
         H            0.997096864556     0.512847415900    -1.129302269517     1.007825032230
         H            2.408221864556     1.546824415900    -1.190223269517     1.007825032230
         C            0.792271864556     2.354945415900    -0.018791269517    12.000000000000
         H            1.412675864556     3.048549415900     0.550635730483     1.007825032230
         H            0.332992864556     2.910127415900    -0.836823269517     1.007825032230
         H           -0.007504135444     2.012198415900     0.640416730483     1.007825032230

  Charge       = 0
  Multiplicity = 1
  Basis Set: JUN-CC-PVTZ
    Blend: JUN-CC-PVTZ
  Basis Set: (JUN-CC-PVTZ AUX)
    Blend: JUN-CC-PVTZ-JKFIT

    Orbital Energies [Eh]
    ---------------------

    Doubly Occupied:

       1A    -11.213489     2A    -11.212863     3A    -11.207753
       4A    -11.207594     5A     -1.071307     6A     -0.980185
       7A     -0.860197     8A     -0.787537     9A     -0.638706
      10A     -0.584212    11A     -0.575562    12A     -0.566818
      13A     -0.514171    14A     -0.494028    15A     -0.469656
      16A     -0.461276    17A     -0.455879

  @DF-RHF Final Energy:  -157.35590460568031

   => Energetics <=

    Nuclear Repulsion Energy =            131.0735174420956923
    One-Electron Energy =                -470.2563774803070373
    Two-Electron Energy =                 181.8269554325310366
    Total Energy =                       -157.3559046056803084

  Dipole Moment: [D]
     X:     0.0031      Y:     0.0027      Z:     0.0001     Total:     0.0041

    SAPT Results
  --------------------------------------------------------------------------------------------------------
    Electrostatics                 -2.95669930 [mEh]      -1.85535682 [kcal/mol]      -7.76281294 [kJ/mol]
      Elst10,r                     -2.95669930 [mEh]      -1.85535682 [kcal/mol]      -7.76281294 [kJ/mol]

    Exchange                        8.26232514 [mEh]       5.18468730 [kcal/mol]      21.69273166 [kJ/mol]
      Exch10                        8.26232514 [mEh]       5.18468730 [kcal/mol]      21.69273166 [kJ/mol]
      Exch10(S^2)                   8.24856120 [mEh]       5.17605030 [kcal/mol]      21.65659446 [kJ/mol]

    Induction                      -1.27820415 [mEh]      -0.80208521 [kcal/mol]      -3.35592454 [kJ/mol]
      Ind20,r                      -2.22079275 [mEh]      -1.39356849 [kcal/mol]      -5.83069057 [kJ/mol]
      Exch-Ind20,r                  1.53492376 [mEh]       0.96317920 [kcal/mol]       4.02994178 [kJ/mol]
      delta HF,r (2)               -0.59233516 [mEh]      -0.37169592 [kcal/mol]      -1.55517575 [kJ/mol]

    Dispersion                     -9.68366888 [mEh]      -6.07659396 [kcal/mol]     -25.42446914 [kJ/mol]
      Disp20                      -10.60845671 [mEh]      -6.65690709 [kcal/mol]     -27.85249925 [kJ/mol]
      Exch-Disp20                   0.92478783 [mEh]       0.58031312 [kcal/mol]       2.42803011 [kJ/mol]
      Disp20 (SS)                  -5.30422835 [mEh]      -3.32845354 [kcal/mol]     -13.92624963 [kJ/mol]
      Disp20 (OS)                  -5.30422835 [mEh]      -3.32845354 [kcal/mol]     -13.92624963 [kJ/mol]
      Exch-Disp20 (SS)              0.59963549 [mEh]       0.37627695 [kcal/mol]       1.57434277 [kJ/mol]
      Exch-Disp20 (OS)              0.32515234 [mEh]       0.20403617 [kcal/mol]       0.85368734 [kJ/mol]

  Total HF                          4.02742169 [mEh]       2.52724527 [kcal/mol]      10.57399419 [kJ/mol]
  Total SAPT0                      -5.65624719 [mEh]      -3.54934870 [kcal/mol]     -14.85047495 [kJ/mol]

  Special recipe for scaled SAPT0 (see Manual):
    Electrostatics sSAPT0          -2.95669930 [mEh]      -1.85535682 [kcal/mol]      -7.76281294 [kJ/mol]
    Exchange sSAPT0                 8.26232514 [mEh]       5.18468730 [kcal/mol]      21.69273166 [kJ/mol]
    Induction sSAPT0               -1.27050759 [mEh]      -0.79725555 [kcal/mol]      -3.33571721 [kJ/mol]
    Dispersion sSAPT0              -9.67903172 [mEh]      -6.07368410 [kcal/mol]     -25.41229427 [kJ/mol]
  Total sSAPT0                     -5.64391346 [mEh]      -3.54160917 [kcal/mol]     -14.81809276 [kJ/mol]
  --------------------------------------------------------------------------------------------------------

*** Psi4 exiting successfully. Buy a developer a beer!
