                               Psi4 1.3.2 release

  ==> Input File <==

--------------------------------------------------------------------------
# Any line starting with the # character is a comment line
#! Sample  computation

memory 22 gb

molecule Dimer {
0 1
 H 1.512623   -0.636005    1.400056
 C 1.613367    1.127693    0.067994
 C 1.468788   -0.338512    0.336506
 O 1.309194   -1.181514   -0.524810
 H 1.579416    1.327727   -0.999095
 H 0.811618    1.666267    0.576374
 H 2.555246    1.481550    0.490094

 --
0 1
 C  -1.953185   -0.245223    0.719395
 C  -1.982254    0.343806   -0.686027
 H  -2.925500   -0.160614    1.203425
 H  -1.230669    0.270099    1.353297
 H  -1.679710   -1.299204    0.696677
 H  -2.220413    1.406981   -0.665167
 H  -2.734377   -0.150857   -1.299143
 H  -1.022085    0.219589   -1.185241

units angstrom

no_reorient
symmetry c1
}

set globals{
  basis jun-cc-pvtz
}

energy('sapt0')

--------------------------------------------------------------------------

  //              Dimer HF             //
    Molecular point group: c1
  Charge       = 0
  Multiplicity = 1
  Basis Set: JUN-CC-PVTZ
    Blend: JUN-CC-PVTZ
  Basis Set: (JUN-CC-PVTZ AUX)
    Blend: JUN-CC-PVTZ-JKFIT
  @DF-RHF Final Energy:  -232.23393079033016
    Total Energy =                       -232.2339307903301631
  //            Monomer A HF           //
    Molecular point group: c1
  Multiplicity = 1
  Basis Set: JUN-CC-PVTZ
    Blend: JUN-CC-PVTZ
  Basis Set: (JUN-CC-PVTZ AUX)
    Blend: JUN-CC-PVTZ-JKFIT
  @DF-RHF Final Energy:  -152.97582644535487
    Total Energy =                       -152.9758264453548691
  //            Monomer B HF           //
    Molecular point group: c1

    Geometry (in Angstrom), charge = 0, multiplicity = 1:

       Center              X                  Y                   Z               Mass
    ------------   -----------------  -----------------  -----------------  -----------------
      Gh(H)           1.441000662842    -0.580826689119     1.421066346318     1.007825032230
      Gh(C)           1.541744662842     1.182871310881     0.089004346318    12.000000000000
      Gh(C)           1.397165662842    -0.283333689119     0.357516346318    12.000000000000
      Gh(O)           1.237571662842    -1.126335689119    -0.503799653682    15.994914619570
      Gh(H)           1.507793662842     1.382905310881    -0.978084653682     1.007825032230
      Gh(H)           0.739995662842     1.721445310881     0.597384346318     1.007825032230
      Gh(H)           2.483623662842     1.536728310881     0.511104346318     1.007825032230
         C           -2.024807337158    -0.190044689119     0.740405346318    12.000000000000
         C           -2.053876337158     0.398984310881    -0.665016653682    12.000000000000
         H           -2.997122337158    -0.105435689119     1.224435346318     1.007825032230
         H           -1.302291337158     0.325277310881     1.374307346318     1.007825032230
         H           -1.751332337158    -1.244025689119     0.717687346318     1.007825032230
         H           -2.292035337158     1.462159310881    -0.644156653682     1.007825032230
         H           -2.805999337158    -0.095678689119    -1.278132653682     1.007825032230
         H           -1.093707337158     0.274767310881    -1.164230653682     1.007825032230

  Charge       = 0
  Multiplicity = 1
  Basis Set: JUN-CC-PVTZ
    Blend: JUN-CC-PVTZ
  Basis Set: (JUN-CC-PVTZ AUX)
    Blend: JUN-CC-PVTZ-JKFIT

    Orbital Energies [Eh]
    ---------------------

    Doubly Occupied:

       1A    -11.210542     2A    -11.209930     3A     -1.018451
       4A     -0.841621     5A     -0.597957     6A     -0.596099
       7A     -0.509859     8A     -0.487542     9A     -0.485547

  @DF-RHF Final Energy:   -79.26010624750717

   => Energetics <=

    Nuclear Repulsion Energy =             42.3378332972198308
    One-Electron Energy =                -189.2807860174035568
    Two-Electron Energy =                  67.6828464726765446
    Total Energy =                        -79.2601062475071672

  Dipole Moment: [D]
     X:    -0.0028      Y:    -0.0025      Z:    -0.0013     Total:     0.0039

    SAPT Results
  --------------------------------------------------------------------------------------------------------
    Electrostatics                 -1.52148589 [mEh]      -0.95474681 [kcal/mol]      -3.99466066 [kJ/mol]
      Elst10,r                     -1.52148589 [mEh]      -0.95474681 [kcal/mol]      -3.99466066 [kJ/mol]

    Exchange                        4.18951528 [mEh]       2.62896053 [kcal/mol]      10.99957086 [kJ/mol]
      Exch10                        4.18951528 [mEh]       2.62896053 [kcal/mol]      10.99957086 [kJ/mol]
      Exch10(S^2)                   4.18009298 [mEh]       2.62304794 [kcal/mol]      10.97483260 [kJ/mol]

    Induction                      -0.66612686 [mEh]      -0.41800091 [kcal/mol]      -1.74891582 [kJ/mol]
      Ind20,r                      -1.18217919 [mEh]      -0.74182864 [kcal/mol]      -3.10381105 [kJ/mol]
      Exch-Ind20,r                  0.78775657 [mEh]       0.49432471 [kcal/mol]       2.06825459 [kJ/mol]
      delta HF,r (2)               -0.27170423 [mEh]      -0.17049698 [kcal/mol]      -0.71335936 [kJ/mol]

    Dispersion                     -4.85655546 [mEh]      -3.04753456 [kcal/mol]     -12.75088461 [kJ/mol]
      Disp20                       -5.29559118 [mEh]      -3.32303364 [kcal/mol]     -13.90357273 [kJ/mol]
      Exch-Disp20                   0.43903572 [mEh]       0.27549907 [kcal/mol]       1.15268812 [kJ/mol]
      Disp20 (SS)                  -2.64779559 [mEh]      -1.66151682 [kcal/mol]      -6.95178637 [kJ/mol]
      Disp20 (OS)                  -2.64779559 [mEh]      -1.66151682 [kcal/mol]      -6.95178637 [kJ/mol]
      Exch-Disp20 (SS)              0.28684481 [mEh]       0.17999784 [kcal/mol]       0.75311096 [kJ/mol]
      Exch-Disp20 (OS)              0.15219091 [mEh]       0.09550124 [kcal/mol]       0.39957717 [kJ/mol]

  Total HF                          2.00190253 [mEh]       1.25621280 [kcal/mol]       5.25599437 [kJ/mol]
  Total SAPT0                      -2.85465293 [mEh]      -1.79132176 [kcal/mol]      -7.49489023 [kJ/mol]

  Special recipe for scaled SAPT0 (see Manual):
    Electrostatics sSAPT0          -1.52148589 [mEh]      -0.95474681 [kcal/mol]      -3.99466066 [kJ/mol]
    Exchange sSAPT0                 4.18951528 [mEh]       2.62896053 [kcal/mol]      10.99957086 [kJ/mol]
    Induction sSAPT0               -0.66078782 [mEh]      -0.41465062 [kcal/mol]      -1.73489818 [kJ/mol]
    Dispersion sSAPT0              -4.85357989 [mEh]      -3.04566736 [kcal/mol]     -12.74307224 [kJ/mol]
  Total sSAPT0                     -2.84633832 [mEh]      -1.78610426 [kcal/mol]      -7.47306022 [kJ/mol]
  --------------------------------------------------------------------------------------------------------

*** Psi4 exiting successfully. Buy a developer a beer!
