                               Psi4 1.3.2 release

  ==> Input File <==

--------------------------------------------------------------------------
# Any line starting with the # character is a comment line
#! Sample  computation

memory 22 gb

molecule Dimer {
0 1
 H -1.301224    1.759812    1.145505
 C -1.690052   -0.356128    0.621970
 C -1.187898    1.027179    0.324879
 O -0.687057    1.364570   -0.730709
 H -2.749493   -0.258819    0.881271
 C -1.475411   -1.337843   -0.515638
 H -1.979628   -0.997136   -1.417830
 H -0.416140   -1.430312   -0.749251
 H -1.860185   -2.321294   -0.252428
 H -1.197833   -0.682625    1.543411

 --
0 1
 C  2.113467   -0.184589    0.858839
 C  2.455390   -0.147475   -0.625976
 H  2.966504   -0.505315    1.456127
 H  1.296263   -0.878473    1.057915
 H  1.810474    0.799758    1.215273
 H  2.739190   -1.135211   -0.988263
 H  3.289218    0.526838   -0.817287
 H  1.606335    0.199351   -1.213214

units angstrom

no_reorient
symmetry c1
}

set globals{
  basis jun-cc-pvtz
}

energy('sapt0')

--------------------------------------------------------------------------

  //              Dimer HF             //
    Molecular point group: c1
  Charge       = 0
  Multiplicity = 1
  Basis Set: JUN-CC-PVTZ
    Blend: JUN-CC-PVTZ
  Basis Set: (JUN-CC-PVTZ AUX)
    Blend: JUN-CC-PVTZ-JKFIT
  @DF-RHF Final Energy:  -271.28235239434667
    Total Energy =                       -271.2823523943466739
  //            Monomer A HF           //
    Molecular point group: c1
  Multiplicity = 1
  Basis Set: JUN-CC-PVTZ
    Blend: JUN-CC-PVTZ
  Basis Set: (JUN-CC-PVTZ AUX)
    Blend: JUN-CC-PVTZ-JKFIT
  @DF-RHF Final Energy:  -192.02435631174285
    Total Energy =                       -192.0243563117428494
  //            Monomer B HF           //
    Molecular point group: c1

    Geometry (in Angstrom), charge = 0, multiplicity = 1:

       Center              X                  Y                   Z               Mass
    ------------   -----------------  -----------------  -----------------  -----------------
      Gh(H)          -1.253918417797     1.704436562438     1.166426463068     1.007825032230
      Gh(C)          -1.642746417797    -0.411503437562     0.642891463068    12.000000000000
      Gh(C)          -1.140592417797     0.971803562438     0.345800463068    12.000000000000
      Gh(O)          -0.639751417797     1.309194562438    -0.709787536932    15.994914619570
      Gh(H)          -2.702187417797    -0.314194437562     0.902192463068     1.007825032230
      Gh(C)          -1.428105417797    -1.393218437562    -0.494716536932    12.000000000000
      Gh(H)          -1.932322417797    -1.052511437562    -1.396908536932     1.007825032230
      Gh(H)          -0.368834417797    -1.485687437562    -0.728329536932     1.007825032230
      Gh(H)          -1.812879417797    -2.376669437562    -0.231506536932     1.007825032230
      Gh(H)          -1.150527417797    -0.738000437562     1.564332463068     1.007825032230
         C            2.160772582203    -0.239964437562     0.879760463068    12.000000000000
         C            2.502695582203    -0.202850437562    -0.605054536932    12.000000000000
         H            3.013809582203    -0.560690437562     1.477048463068     1.007825032230
         H            1.343568582203    -0.933848437562     1.078836463068     1.007825032230
         H            1.857779582203     0.744382562438     1.236194463068     1.007825032230
         H            2.786495582203    -1.190586437562    -0.967341536932     1.007825032230
         H            3.336523582203     0.471462562438    -0.796365536932     1.007825032230
         H            1.653640582203     0.143975562438    -1.192292536932     1.007825032230

  Charge       = 0
  Multiplicity = 1
  Basis Set: JUN-CC-PVTZ
    Blend: JUN-CC-PVTZ
  Basis Set: (JUN-CC-PVTZ AUX)
    Blend: JUN-CC-PVTZ-JKFIT

    Orbital Energies [Eh]
    ---------------------

    Doubly Occupied:

       1A    -11.210532     2A    -11.209920     3A     -1.018515
       4A     -0.841327     5A     -0.597664     6A     -0.596787
       7A     -0.509395     8A     -0.487079     9A     -0.486140

  @DF-RHF Final Energy:   -79.26012197289391

   => Energetics <=

    Nuclear Repulsion Energy =             42.3404569622244651
    One-Electron Energy =                -189.2864399596990381
    Two-Electron Energy =                  67.6858610245806602
    Total Energy =                        -79.2601219728939128

  Dipole Moment: [D]
     X:     0.0027      Y:     0.0012      Z:    -0.0001     Total:     0.0030

    SAPT Results
  --------------------------------------------------------------------------------------------------------
    Electrostatics                 -2.07283928 [mEh]      -1.30072629 [kcal/mol]      -5.44223878 [kJ/mol]
      Elst10,r                     -2.07283928 [mEh]      -1.30072629 [kcal/mol]      -5.44223878 [kJ/mol]

    Exchange                        5.02878196 [mEh]       3.15560832 [kcal/mol]      13.20306521 [kJ/mol]
      Exch10                        5.02878196 [mEh]       3.15560832 [kcal/mol]      13.20306521 [kJ/mol]
      Exch10(S^2)                   5.01970491 [mEh]       3.14991239 [kcal/mol]      13.17923344 [kJ/mol]

    Induction                      -0.83005238 [mEh]      -0.52086574 [kcal/mol]      -2.17930224 [kJ/mol]
      Ind20,r                      -1.35285431 [mEh]      -0.84892890 [kcal/mol]      -3.55191850 [kJ/mol]
      Exch-Ind20,r                  0.88406442 [mEh]       0.55475880 [kcal/mol]       2.32111082 [kJ/mol]
      delta HF,r (2)               -0.36126250 [mEh]      -0.22669564 [kcal/mol]      -0.94849456 [kJ/mol]

    Dispersion                     -5.65387207 [mEh]      -3.54785829 [kcal/mol]     -14.84423909 [kJ/mol]
      Disp20                       -6.18868691 [mEh]      -3.88345967 [kcal/mol]     -16.24839526 [kJ/mol]
      Exch-Disp20                   0.53481484 [mEh]       0.33560138 [kcal/mol]       1.40415617 [kJ/mol]
      Disp20 (SS)                  -3.09434346 [mEh]      -1.94172983 [kcal/mol]      -8.12419763 [kJ/mol]
      Disp20 (OS)                  -3.09434346 [mEh]      -1.94172983 [kcal/mol]      -8.12419763 [kJ/mol]
      Exch-Disp20 (SS)              0.34503877 [mEh]       0.21651510 [kcal/mol]       0.90589917 [kJ/mol]
      Exch-Disp20 (OS)              0.18977607 [mEh]       0.11908628 [kcal/mol]       0.49825700 [kJ/mol]

  Total HF                          2.12589029 [mEh]       1.33401630 [kcal/mol]       5.58152419 [kJ/mol]
  Total SAPT0                      -3.52798178 [mEh]      -2.21384199 [kcal/mol]      -9.26271490 [kJ/mol]

  Special recipe for scaled SAPT0 (see Manual):
    Electrostatics sSAPT0          -2.07283928 [mEh]      -1.30072629 [kcal/mol]      -5.44223878 [kJ/mol]
    Exchange sSAPT0                 5.02878196 [mEh]       3.15560832 [kcal/mol]      13.20306521 [kJ/mol]
    Induction sSAPT0               -0.82524779 [mEh]      -0.51785081 [kcal/mol]      -2.16668778 [kJ/mol]
    Dispersion sSAPT0              -5.65096554 [mEh]      -3.54603441 [kcal/mol]     -14.83660797 [kJ/mol]
  Total sSAPT0                     -3.52027066 [mEh]      -2.20900319 [kcal/mol]      -9.24246933 [kJ/mol]
  --------------------------------------------------------------------------------------------------------

*** Psi4 exiting successfully. Buy a developer a beer!
