                               Psi4 1.3.2 release

  ==> Input File <==

--------------------------------------------------------------------------
# Any line starting with the # character is a comment line
#! Sample  computation

memory 22 gb

molecule Dimer {
0 1
 H -0.936118   -2.272309    1.286212
 C -1.102155   -0.132013    0.745168
 C -1.011693   -1.593689    0.415777
 O -1.018117   -2.046722   -0.712697
 H -0.229218    0.114002    1.361168
 C -1.199397    0.778375   -0.465745
 H -0.318786    0.632955   -1.093260
 H -2.055129    0.475833   -1.070751
 H -1.965782   -0.004779    1.408545
 C -1.327092    2.241538   -0.061898
 H -2.223295    2.403478    0.538440
 H -0.469263    2.561514    0.531260
 H -1.388431    2.889071   -0.935576

 --
0 1
 C  2.614143    0.858151   -0.010503
 C  2.448507   -0.657066   -0.003085
 H  1.703475    1.360064    0.316300
 H  2.847668    1.222623   -1.010217
 H  3.419551    1.171178    0.652911
 H  1.651848   -0.974874   -0.675018
 H  2.209969   -1.024175    0.995515
 H  3.364571   -1.152577   -0.322239

units angstrom

no_reorient
symmetry c1
}

set globals{
  basis jun-cc-pvtz
}

energy('sapt0')

--------------------------------------------------------------------------

  //              Dimer HF             //
    Molecular point group: c1
  Charge       = 0
  Multiplicity = 1
  Basis Set: JUN-CC-PVTZ
    Blend: JUN-CC-PVTZ
  Basis Set: (JUN-CC-PVTZ AUX)
    Blend: JUN-CC-PVTZ-JKFIT
  @DF-RHF Final Energy:  -310.32937545785421
    Total Energy =                       -310.3293754578542121
  //            Monomer A HF           //
    Molecular point group: c1
  Multiplicity = 1
  Basis Set: JUN-CC-PVTZ
    Blend: JUN-CC-PVTZ
  Basis Set: (JUN-CC-PVTZ AUX)
    Blend: JUN-CC-PVTZ-JKFIT
  @DF-RHF Final Energy:  -231.07196824009685
    Total Energy =                       -231.0719682400968509
  //            Monomer B HF           //
    Molecular point group: c1

    Geometry (in Angstrom), charge = 0, multiplicity = 1:

       Center              X                  Y                   Z               Mass
    ------------   -----------------  -----------------  -----------------  -----------------
      Gh(H)          -0.881644654897    -2.200483867622     1.305448674470     1.007825032230
      Gh(C)          -1.047681654897    -0.060187867622     0.764404674470    12.000000000000
      Gh(C)          -0.957219654897    -1.521863867622     0.435013674470    12.000000000000
      Gh(O)          -0.963643654897    -1.974896867622    -0.693460325530    15.994914619570
      Gh(H)          -0.174744654897     0.185827132378     1.380404674470     1.007825032230
      Gh(C)          -1.144923654897     0.850200132378    -0.446508325530    12.000000000000
      Gh(H)          -0.264312654897     0.704780132378    -1.074023325530     1.007825032230
      Gh(H)          -2.000655654897     0.547658132378    -1.051514325530     1.007825032230
      Gh(H)          -1.911308654897     0.067046132378     1.427781674470     1.007825032230
      Gh(C)          -1.272618654897     2.313363132378    -0.042661325530    12.000000000000
      Gh(H)          -2.168821654897     2.475303132378     0.557676674470     1.007825032230
      Gh(H)          -0.414789654897     2.633339132378     0.550496674470     1.007825032230
      Gh(H)          -1.333957654897     2.960896132378    -0.916339325530     1.007825032230
         C            2.668616345103     0.929976132378     0.008733674470    12.000000000000
         C            2.502980345103    -0.585240867622     0.016151674470    12.000000000000
         H            1.757948345103     1.431889132378     0.335536674470     1.007825032230
         H            2.902141345103     1.294448132378    -0.990980325530     1.007825032230
         H            3.474024345103     1.243003132378     0.672147674470     1.007825032230
         H            1.706321345103    -0.903048867622    -0.655781325530     1.007825032230
         H            2.264442345103    -0.952349867622     1.014751674470     1.007825032230
         H            3.419044345103    -1.080751867622    -0.303002325530     1.007825032230

  Charge       = 0
  Multiplicity = 1
  Basis Set: JUN-CC-PVTZ
    Blend: JUN-CC-PVTZ
  Basis Set: (JUN-CC-PVTZ AUX)
    Blend: JUN-CC-PVTZ-JKFIT

    Orbital Energies [Eh]
    ---------------------

    Doubly Occupied:

       1A    -11.210649     2A    -11.210036     3A     -1.018317
       4A     -0.841822     5A     -0.597157     6A     -0.596398
       7A     -0.510273     8A     -0.486935     9A     -0.485988

  @DF-RHF Final Energy:   -79.26013852092267

   => Energetics <=

    Nuclear Repulsion Energy =             42.3297759345287687
    One-Electron Energy =                -189.2646790588741510
    Two-Electron Energy =                  67.6747646034227301
    Total Energy =                        -79.2601385209226663

  Dipole Moment: [D]
     X:     0.0037      Y:     0.0001      Z:    -0.0017     Total:     0.0040

    SAPT Results
  --------------------------------------------------------------------------------------------------------
    Electrostatics                 -1.82471900 [mEh]      -1.14502846 [kcal/mol]      -4.79079908 [kJ/mol]
      Elst10,r                     -1.82471900 [mEh]      -1.14502846 [kcal/mol]      -4.79079908 [kJ/mol]

    Exchange                        5.17236400 [mEh]       3.24570741 [kcal/mol]      13.58003980 [kJ/mol]
      Exch10                        5.17236400 [mEh]       3.24570741 [kcal/mol]      13.58003980 [kJ/mol]
      Exch10(S^2)                   5.16407872 [mEh]       3.24050832 [kcal/mol]      13.55828680 [kJ/mol]

    Induction                      -0.61634183 [mEh]      -0.38676034 [kcal/mol]      -1.61820525 [kJ/mol]
      Ind20,r                      -1.13950659 [mEh]      -0.71505118 [kcal/mol]      -2.99177413 [kJ/mol]
      Exch-Ind20,r                  0.84457394 [mEh]       0.52997815 [kcal/mol]       2.21742858 [kJ/mol]
      delta HF,r (2)               -0.32140919 [mEh]      -0.20168731 [kcal/mol]      -0.84385970 [kJ/mol]

    Dispersion                     -6.30703714 [mEh]      -3.95772556 [kcal/mol]     -16.55912374 [kJ/mol]
      Disp20                       -6.86407971 [mEh]      -4.30727505 [kcal/mol]     -18.02163879 [kJ/mol]
      Exch-Disp20                   0.55704256 [mEh]       0.34954949 [kcal/mol]       1.46251505 [kJ/mol]
      Disp20 (SS)                  -3.43203985 [mEh]      -2.15363752 [kcal/mol]      -9.01081940 [kJ/mol]
      Disp20 (OS)                  -3.43203985 [mEh]      -2.15363752 [kcal/mol]      -9.01081940 [kJ/mol]
      Exch-Disp20 (SS)              0.36650014 [mEh]       0.22998231 [kcal/mol]       0.96224600 [kJ/mol]
      Exch-Disp20 (OS)              0.19054242 [mEh]       0.11956717 [kcal/mol]       0.50026905 [kJ/mol]

  Total HF                          2.73130317 [mEh]       1.71391861 [kcal/mol]       7.17103547 [kJ/mol]
  Total SAPT0                      -3.57573398 [mEh]      -2.24380695 [kcal/mol]      -9.38808827 [kJ/mol]

  Special recipe for scaled SAPT0 (see Manual):
    Electrostatics sSAPT0          -1.82471900 [mEh]      -1.14502846 [kcal/mol]      -4.79079908 [kJ/mol]
    Exchange sSAPT0                 5.17236400 [mEh]       3.24570741 [kcal/mol]      13.58003980 [kJ/mol]
    Induction sSAPT0               -0.61227019 [mEh]      -0.38420534 [kcal/mol]      -1.60751515 [kJ/mol]
    Dispersion sSAPT0              -6.30435167 [mEh]      -3.95604040 [kcal/mol]     -16.55207304 [kJ/mol]
  Total sSAPT0                     -3.56897686 [mEh]      -2.23956679 [kcal/mol]      -9.37034746 [kJ/mol]
  --------------------------------------------------------------------------------------------------------

*** Psi4 exiting successfully. Buy a developer a beer!
