                               Psi4 1.3.2 release

  ==> Input File <==

--------------------------------------------------------------------------
# Any line starting with the # character is a comment line
#! Sample  computation

memory 22 gb

molecule Dimer {
0 1
 H -0.448001    2.476867    1.087831
 C -1.383835    0.503661    0.722564
 C -0.733933    1.781352    0.276520
 O -0.515087    2.073824   -0.883571
 H -2.248988    0.778889    1.337083
 C -1.784263   -0.427801   -0.407581
 H -2.478096    0.092547   -1.069364
 H -0.904657   -0.657703   -1.009844
 H -0.688132    0.014031    1.414434
 C -2.413082   -1.711415    0.118612
 H -1.715148   -2.253624    0.758175
 H -3.306013   -1.497324    0.707460
 H -2.701194   -2.373543   -0.696848

 --
0 1
 C  1.758954   -1.755379   -0.115024
 C  2.170519   -0.354333   -0.550970
 C  2.589060    0.511055    0.631099
 H  2.583572   -2.263429    0.387284
 H  0.922692   -1.715088    0.585679
 H  1.453253   -2.368703   -0.962691
 H  1.348448    0.127865   -1.083206
 H  2.997473   -0.422427   -1.260626
 H  2.856386    1.519241    0.315879
 H  1.780614    0.591729    1.360622
 H  3.447970    0.077243    1.145377

units angstrom

no_reorient
symmetry c1
}

set globals{
  basis jun-cc-pvtz
}

energy('sapt0')

--------------------------------------------------------------------------

  //              Dimer HF             //
    Molecular point group: c1
  Charge       = 0
  Multiplicity = 1
  Basis Set: JUN-CC-PVTZ
    Blend: JUN-CC-PVTZ
  Basis Set: (JUN-CC-PVTZ AUX)
    Blend: JUN-CC-PVTZ-JKFIT
  @DF-RHF Final Energy:  -349.37650453801979
    Total Energy =                       -349.3765045380197876
  //            Monomer A HF           //
    Molecular point group: c1
  Multiplicity = 1
  Basis Set: JUN-CC-PVTZ
    Blend: JUN-CC-PVTZ
  Basis Set: (JUN-CC-PVTZ AUX)
    Blend: JUN-CC-PVTZ-JKFIT
  @DF-RHF Final Energy:  -231.07198057469577
    Total Energy =                       -231.0719805746957718
  //            Monomer B HF           //
    Molecular point group: c1

    Geometry (in Angstrom), charge = 0, multiplicity = 1:

       Center              X                  Y                   Z               Mass
    ------------   -----------------  -----------------  -----------------  -----------------
      Gh(H)          -0.423243363572     2.409684161168     1.113572859302     1.007825032230
      Gh(C)          -1.359077363572     0.436478161168     0.748305859302    12.000000000000
      Gh(C)          -0.709175363572     1.714169161168     0.302261859302    12.000000000000
      Gh(O)          -0.490329363572     2.006641161168    -0.857829140698    15.994914619570
      Gh(H)          -2.224230363572     0.711706161168     1.362824859302     1.007825032230
      Gh(C)          -1.759505363572    -0.494983838832    -0.381839140698    12.000000000000
      Gh(H)          -2.453338363572     0.025364161168    -1.043622140698     1.007825032230
      Gh(H)          -0.879899363572    -0.724885838832    -0.984102140698     1.007825032230
      Gh(H)          -0.663374363572    -0.053151838832     1.440175859302     1.007825032230
      Gh(C)          -2.388324363572    -1.778597838832     0.144353859302    12.000000000000
      Gh(H)          -1.690390363572    -2.320806838832     0.783916859302     1.007825032230
      Gh(H)          -3.281255363572    -1.564506838832     0.733201859302     1.007825032230
      Gh(H)          -2.676436363572    -2.440725838832    -0.671106140698     1.007825032230
         C            1.783711636428    -1.822561838832    -0.089282140698    12.000000000000
         C            2.195276636428    -0.421515838832    -0.525228140698    12.000000000000
         C            2.613817636428     0.443872161168     0.656840859302    12.000000000000
         H            2.608329636428    -2.330611838832     0.413025859302     1.007825032230
         H            0.947449636428    -1.782270838832     0.611420859302     1.007825032230
         H            1.478010636428    -2.435885838832    -0.936949140698     1.007825032230
         H            1.373205636428     0.060682161168    -1.057464140698     1.007825032230
         H            3.022230636428    -0.489609838832    -1.234884140698     1.007825032230
         H            2.881143636428     1.452058161168     0.341620859302     1.007825032230
         H            1.805371636428     0.524546161168     1.386363859302     1.007825032230
         H            3.472727636428     0.010060161168     1.171118859302     1.007825032230

  Charge       = 0
  Multiplicity = 1
  Basis Set: JUN-CC-PVTZ
    Blend: JUN-CC-PVTZ
  Basis Set: (JUN-CC-PVTZ AUX)
    Blend: JUN-CC-PVTZ-JKFIT

    Orbital Energies [Eh]
    ---------------------

    Doubly Occupied:

       1A    -11.215666     2A    -11.208029     3A    -11.207831
       4A     -1.053921     5A     -0.924729     6A     -0.800099
       7A     -0.624281     8A     -0.598225     9A     -0.549777
      10A     -0.529602    11A     -0.476185    12A     -0.474736
      13A     -0.467762

  @DF-RHF Final Energy:  -118.30808297530996

   => Energetics <=

    Nuclear Repulsion Energy =             82.8042815660336515
    One-Electron Energy =                -321.9630409622824345
    Two-Electron Energy =                 120.8506764209388393
    Total Energy =                       -118.3080829753099579

  Dipole Moment: [D]
     X:     0.0016      Y:     0.0252      Z:    -0.0802     Total:     0.0841

    SAPT Results
  --------------------------------------------------------------------------------------------------------
    Electrostatics                 -2.15692976 [mEh]      -1.35349386 [kcal/mol]      -5.66301830 [kJ/mol]
      Elst10,r                     -2.15692976 [mEh]      -1.35349386 [kcal/mol]      -5.66301830 [kJ/mol]

    Exchange                        6.62996008 [mEh]       4.16036276 [kcal/mol]      17.40695779 [kJ/mol]
      Exch10                        6.62996008 [mEh]       4.16036276 [kcal/mol]      17.40695779 [kJ/mol]
      Exch10(S^2)                   6.61842366 [mEh]       4.15312355 [kcal/mol]      17.37666891 [kJ/mol]

    Induction                      -0.91401834 [mEh]      -0.57355517 [kcal/mol]      -2.39975481 [kJ/mol]
      Ind20,r                      -1.58980094 [mEh]      -0.99761515 [kcal/mol]      -4.17402178 [kJ/mol]
      Exch-Ind20,r                  1.12677592 [mEh]       0.70706256 [kcal/mol]       2.95834976 [kJ/mol]
      delta HF,r (2)               -0.45099332 [mEh]      -0.28300258 [kcal/mol]      -1.18408279 [kJ/mol]

    Dispersion                     -8.08318188 [mEh]      -5.07227321 [kcal/mol]     -21.22239109 [kJ/mol]
      Disp20                       -8.80696590 [mEh]      -5.52645454 [kcal/mol]     -23.12268578 [kJ/mol]
      Exch-Disp20                   0.72378402 [mEh]       0.45418133 [kcal/mol]       1.90029469 [kJ/mol]
      Disp20 (SS)                  -4.40348295 [mEh]      -2.76322727 [kcal/mol]     -11.56134289 [kJ/mol]
      Disp20 (OS)                  -4.40348295 [mEh]      -2.76322727 [kcal/mol]     -11.56134289 [kJ/mol]
      Exch-Disp20 (SS)              0.47338044 [mEh]       0.29705071 [kcal/mol]       1.24286018 [kJ/mol]
      Exch-Disp20 (OS)              0.25040358 [mEh]       0.15713062 [kcal/mol]       0.65743451 [kJ/mol]

  Total HF                          3.55901199 [mEh]       2.23331374 [kcal/mol]       9.34418468 [kJ/mol]
  Total SAPT0                      -4.52416989 [mEh]      -2.83895947 [kcal/mol]     -11.87820641 [kJ/mol]

  Special recipe for scaled SAPT0 (see Manual):
    Electrostatics sSAPT0          -2.15692976 [mEh]      -1.35349386 [kcal/mol]      -5.66301830 [kJ/mol]
    Exchange sSAPT0                 6.62996008 [mEh]       4.16036276 [kcal/mol]      17.40695779 [kJ/mol]
    Induction sSAPT0               -0.90811589 [mEh]      -0.56985132 [kcal/mol]      -2.38425793 [kJ/mol]
    Dispersion sSAPT0              -8.07939044 [mEh]      -5.06989404 [kcal/mol]     -21.21243668 [kJ/mol]
  Total sSAPT0                     -4.51447600 [mEh]      -2.83287646 [kcal/mol]     -11.85275512 [kJ/mol]
  --------------------------------------------------------------------------------------------------------

*** Psi4 exiting successfully. Buy a developer a beer!
