                               Psi4 1.3.2 release

  ==> Input File <==

--------------------------------------------------------------------------
# Any line starting with the # character is a comment line
#! Sample  computation

memory 22 gb

molecule Dimer {
0 1
 H 1.528346   -1.810384    0.995415
 C 1.685022    0.390880    0.814445
 C 1.563335   -0.995060    0.249087
 O 1.503755   -1.250063   -0.938394
 H 2.573312    0.395259    1.454500
 C 1.745003    1.479603   -0.241545
 H 2.594091    1.325160   -0.904665
 H 0.845450    1.473515   -0.853954
 H 1.840062    2.459386    0.222918
 H 0.839919    0.530738    1.496624

 --
0 1
 C  -2.135470    1.297956   -0.006920
 C  -1.917120   -0.102552   -0.566426
 C  -1.960414   -1.165727    0.524053
 H  -3.103052    1.369955    0.491996
 H  -1.367486    1.547716    0.727578
 H  -2.104965    2.054787   -0.790590
 H  -0.958731   -0.151797   -1.086657
 H  -2.682844   -0.319592   -1.313805
 H  -1.771560   -2.160903    0.122502
 H  -1.210780   -0.966620    1.292649
 H  -2.933929   -1.177320    1.016468

units angstrom

no_reorient
symmetry c1
}

set globals{
  basis jun-cc-pvtz
}

energy('sapt0')

--------------------------------------------------------------------------

  //              Dimer HF             //
    Molecular point group: c1
  Charge       = 0
  Multiplicity = 1
  Basis Set: JUN-CC-PVTZ
    Blend: JUN-CC-PVTZ
  Basis Set: (JUN-CC-PVTZ AUX)
    Blend: JUN-CC-PVTZ-JKFIT
  @DF-RHF Final Energy:  -310.32935385656072
    Total Energy =                       -310.3293538565607150
  //            Monomer A HF           //
    Molecular point group: c1
  Multiplicity = 1
  Basis Set: JUN-CC-PVTZ
    Blend: JUN-CC-PVTZ
  Basis Set: (JUN-CC-PVTZ AUX)
    Blend: JUN-CC-PVTZ-JKFIT
  @DF-RHF Final Energy:  -192.02439949881040
    Total Energy =                       -192.0243994988103964
  //            Monomer B HF           //
    Molecular point group: c1

    Geometry (in Angstrom), charge = 0, multiplicity = 1:

       Center              X                  Y                   Z               Mass
    ------------   -----------------  -----------------  -----------------  -----------------
      Gh(H)           1.470970693912    -1.766039305219     1.023266469613     1.007825032230
      Gh(C)           1.627646693912     0.435224694781     0.842296469613    12.000000000000
      Gh(C)           1.505959693912    -0.950715305219     0.276938469613    12.000000000000
      Gh(O)           1.446379693912    -1.205718305219    -0.910542530387    15.994914619570
      Gh(H)           2.515936693912     0.439603694781     1.482351469613     1.007825032230
      Gh(C)           1.687627693912     1.523947694781    -0.213693530387    12.000000000000
      Gh(H)           2.536715693912     1.369504694781    -0.876813530387     1.007825032230
      Gh(H)           0.788074693912     1.517859694781    -0.826102530387     1.007825032230
      Gh(H)           1.782686693912     2.503730694781     0.250769469613     1.007825032230
      Gh(H)           0.782543693912     0.575082694781     1.524475469613     1.007825032230
         C           -2.192845306088     1.342300694781     0.020931469613    12.000000000000
         C           -1.974495306088    -0.058207305219    -0.538574530387    12.000000000000
         C           -2.017789306088    -1.121382305219     0.551904469613    12.000000000000
         H           -3.160427306088     1.414299694781     0.519847469613     1.007825032230
         H           -1.424861306088     1.592060694781     0.755429469613     1.007825032230
         H           -2.162340306088     2.099131694781    -0.762738530387     1.007825032230
         H           -1.016106306088    -0.107452305219    -1.058805530387     1.007825032230
         H           -2.740219306088    -0.275247305219    -1.285953530387     1.007825032230
         H           -1.828935306088    -2.116558305219     0.150353469613     1.007825032230
         H           -1.268155306088    -0.922275305219     1.320500469613     1.007825032230
         H           -2.991304306088    -1.132975305219     1.044319469613     1.007825032230

  Charge       = 0
  Multiplicity = 1
  Basis Set: JUN-CC-PVTZ
    Blend: JUN-CC-PVTZ
  Basis Set: (JUN-CC-PVTZ AUX)
    Blend: JUN-CC-PVTZ-JKFIT

    Orbital Energies [Eh]
    ---------------------

    Doubly Occupied:

       1A    -11.215641     2A    -11.207998     3A    -11.207821
       4A     -1.053940     5A     -0.924748     6A     -0.800113
       7A     -0.624268     8A     -0.598260     9A     -0.549805
      10A     -0.529621    11A     -0.476230    12A     -0.474724
      13A     -0.467731

  @DF-RHF Final Energy:  -118.30807808967376

   => Energetics <=

    Nuclear Repulsion Energy =             82.8069550953044171
    One-Electron Energy =                -321.9682681375600168
    Two-Electron Energy =                 120.8532349525818290
    Total Energy =                       -118.3080780896737565

  Dipole Moment: [D]
     X:     0.0105      Y:    -0.0157      Z:    -0.0819     Total:     0.0840

    SAPT Results
  --------------------------------------------------------------------------------------------------------
    Electrostatics                 -1.93542850 [mEh]      -1.21449972 [kcal/mol]      -5.08146681 [kJ/mol]
      Elst10,r                     -1.93542850 [mEh]      -1.21449972 [kcal/mol]      -5.08146681 [kJ/mol]

    Exchange                        5.90280971 [mEh]       3.70406901 [kcal/mol]      15.49782475 [kJ/mol]
      Exch10                        5.90280971 [mEh]       3.70406901 [kcal/mol]      15.49782475 [kJ/mol]
      Exch10(S^2)                   5.89239357 [mEh]       3.69753279 [kcal/mol]      15.47047718 [kJ/mol]

    Induction                      -0.84364929 [mEh]      -0.52939792 [kcal/mol]      -2.21500090 [kJ/mol]
      Ind20,r                      -1.46282043 [mEh]      -0.91793368 [kcal/mol]      -3.84063452 [kJ/mol]
      Exch-Ind20,r                  1.01987554 [mEh]       0.63998156 [kcal/mol]       2.67768285 [kJ/mol]
      delta HF,r (2)               -0.40070439 [mEh]      -0.25144580 [kcal/mol]      -1.05204924 [kJ/mol]

    Dispersion                     -7.09980823 [mEh]      -4.45519693 [kcal/mol]     -18.64054395 [kJ/mol]
      Disp20                       -7.73189140 [mEh]      -4.85183510 [kcal/mol]     -20.30007808 [kJ/mol]
      Exch-Disp20                   0.63208317 [mEh]       0.39663818 [kcal/mol]       1.65953413 [kJ/mol]
      Disp20 (SS)                  -3.86594570 [mEh]      -2.42591755 [kcal/mol]     -10.15003904 [kJ/mol]
      Disp20 (OS)                  -3.86594570 [mEh]      -2.42591755 [kcal/mol]     -10.15003904 [kJ/mol]
      Exch-Disp20 (SS)              0.41338134 [mEh]       0.25940071 [kcal/mol]       1.08533255 [kJ/mol]
      Exch-Disp20 (OS)              0.21870183 [mEh]       0.13723747 [kcal/mol]       0.57420158 [kJ/mol]

  Total HF                          3.12373192 [mEh]       1.96017138 [kcal/mol]       8.20135704 [kJ/mol]
  Total SAPT0                      -3.97607631 [mEh]      -2.49502555 [kcal/mol]     -10.43918691 [kJ/mol]

  Special recipe for scaled SAPT0 (see Manual):
    Electrostatics sSAPT0          -1.93542850 [mEh]      -1.21449972 [kcal/mol]      -5.08146681 [kJ/mol]
    Exchange sSAPT0                 5.90280971 [mEh]       3.70406901 [kcal/mol]      15.49782475 [kJ/mol]
    Induction sSAPT0               -0.83823114 [mEh]      -0.52599798 [kcal/mol]      -2.20077555 [kJ/mol]
    Dispersion sSAPT0              -7.09645025 [mEh]      -4.45308976 [kcal/mol]     -18.63172757 [kJ/mol]
  Total sSAPT0                     -3.96730018 [mEh]      -2.48951845 [kcal/mol]     -10.41614519 [kJ/mol]
  --------------------------------------------------------------------------------------------------------

*** Psi4 exiting successfully. Buy a developer a beer!
