                               Psi4 1.3.2 release

  ==> Input File <==

--------------------------------------------------------------------------
# Any line starting with the # character is a comment line
#! Sample  computation

memory 22 gb

molecule Dimer {
0 1
 H -2.009558    0.003578   -1.518328
 C -2.212607   -0.773679    0.541935
 C -1.835732    0.272615   -0.460261
 O -1.363357    1.357102   -0.178391
 H -2.030796   -0.420764    1.553062
 H -3.264566   -1.034131    0.415007
 H -1.632483   -1.677642    0.347789

 --
0 1
 C  1.354520   -1.259396   -0.611909
 C  1.603982   -0.331976    0.571298
 C  2.122793    1.028590    0.123968
 H  0.638598   -0.816307   -1.306661
 H  2.277820   -1.433344   -1.166306
 H  0.968808   -2.229331   -0.295929
 H  2.320343   -0.797382    1.251592
 H  0.680229   -0.195295    1.136954
 H  2.317660    1.681316    0.974234
 H  3.051293    0.921487   -0.439032
 H  1.391772    1.524067   -0.515441

units angstrom

no_reorient
symmetry c1
}

set globals{
  basis jun-cc-pvtz
}

energy('sapt0')

--------------------------------------------------------------------------

  //              Dimer HF             //
    Molecular point group: c1
  Charge       = 0
  Multiplicity = 1
  Basis Set: JUN-CC-PVTZ
    Blend: JUN-CC-PVTZ
  Basis Set: (JUN-CC-PVTZ AUX)
    Blend: JUN-CC-PVTZ-JKFIT
  @DF-RHF Final Energy:  -271.28147635247382
    Total Energy =                       -271.2814763524738169
  //            Monomer A HF           //
    Molecular point group: c1
  Multiplicity = 1
  Basis Set: JUN-CC-PVTZ
    Blend: JUN-CC-PVTZ
  Basis Set: (JUN-CC-PVTZ AUX)
    Blend: JUN-CC-PVTZ-JKFIT
  @DF-RHF Final Energy:  -152.97580439907378
    Total Energy =                       -152.9758043990737519
  //            Monomer B HF           //
    Molecular point group: c1

    Geometry (in Angstrom), charge = 0, multiplicity = 1:

       Center              X                  Y                   Z               Mass
    ------------   -----------------  -----------------  -----------------  -----------------
      Gh(H)          -1.956596250033    -0.046732852717    -1.513416857349     1.007825032230
      Gh(C)          -2.159645250033    -0.823989852717     0.546846142651    12.000000000000
      Gh(C)          -1.782770250033     0.222304147283    -0.455349857349    12.000000000000
      Gh(O)          -1.310395250033     1.306791147283    -0.173479857349    15.994914619570
      Gh(H)          -1.977834250033    -0.471074852717     1.557973142651     1.007825032230
      Gh(H)          -3.211604250033    -1.084441852717     0.419918142651     1.007825032230
      Gh(H)          -1.579521250033    -1.727952852717     0.352700142651     1.007825032230
         C            1.407481749967    -1.309706852717    -0.606997857349    12.000000000000
         C            1.656943749967    -0.382286852717     0.576209142651    12.000000000000
         C            2.175754749967     0.978279147283     0.128879142651    12.000000000000
         H            0.691559749967    -0.866617852717    -1.301749857349     1.007825032230
         H            2.330781749967    -1.483654852717    -1.161394857349     1.007825032230
         H            1.021769749967    -2.279641852717    -0.291017857349     1.007825032230
         H            2.373304749967    -0.847692852717     1.256503142651     1.007825032230
         H            0.733190749967    -0.245605852717     1.141865142651     1.007825032230
         H            2.370621749967     1.631005147283     0.979145142651     1.007825032230
         H            3.104254749967     0.871176147283    -0.434120857349     1.007825032230
         H            1.444733749967     1.473756147283    -0.510529857349     1.007825032230

  Charge       = 0
  Multiplicity = 1
  Basis Set: JUN-CC-PVTZ
    Blend: JUN-CC-PVTZ
  Basis Set: (JUN-CC-PVTZ AUX)
    Blend: JUN-CC-PVTZ-JKFIT

    Orbital Energies [Eh]
    ---------------------

    Doubly Occupied:

       1A    -11.215513     2A    -11.207910     3A    -11.207692
       4A     -1.054225     5A     -0.924612     6A     -0.799744
       7A     -0.625133     8A     -0.598354     9A     -0.549069
      10A     -0.530246    11A     -0.475515    12A     -0.474724
      13A     -0.468224

  @DF-RHF Final Energy:  -118.30803369050574

   => Energetics <=

    Nuclear Repulsion Energy =             82.8431073832907856
    One-Electron Energy =                -322.0403609885131573
    Two-Electron Energy =                 120.8892199147166480
    Total Energy =                       -118.3080336905057379

  Dipole Moment: [D]
     X:    -0.0115      Y:    -0.0180      Z:     0.0808     Total:     0.0836

    SAPT Results
  --------------------------------------------------------------------------------------------------------
    Electrostatics                 -1.85998460 [mEh]      -1.16715796 [kcal/mol]      -4.88338891 [kJ/mol]
      Elst10,r                     -1.85998460 [mEh]      -1.16715796 [kcal/mol]      -4.88338891 [kJ/mol]

    Exchange                        5.13519886 [mEh]       3.22238594 [kcal/mol]      13.48246276 [kJ/mol]
      Exch10                        5.13519886 [mEh]       3.22238594 [kcal/mol]      13.48246276 [kJ/mol]
      Exch10(S^2)                   5.12547350 [mEh]       3.21628318 [kcal/mol]      13.45692882 [kJ/mol]

    Induction                      -0.91347715 [mEh]      -0.57321557 [kcal/mol]      -2.39833394 [kJ/mol]
      Ind20,r                      -1.54723618 [mEh]      -0.97090536 [kcal/mol]      -4.06226803 [kJ/mol]
      Exch-Ind20,r                  1.00215462 [mEh]       0.62886152 [kcal/mol]       2.63115660 [kJ/mol]
      delta HF,r (2)               -0.36839560 [mEh]      -0.23117173 [kcal/mol]      -0.96722250 [kJ/mol]

    Dispersion                     -5.97294004 [mEh]      -3.74807646 [kcal/mol]     -15.68195192 [kJ/mol]
      Disp20                       -6.52884606 [mEh]      -4.09691275 [kcal/mol]     -17.14148296 [kJ/mol]
      Exch-Disp20                   0.55590602 [mEh]       0.34883629 [kcal/mol]       1.45953104 [kJ/mol]
      Disp20 (SS)                  -3.26442303 [mEh]      -2.04845638 [kcal/mol]      -8.57074148 [kJ/mol]
      Disp20 (OS)                  -3.26442303 [mEh]      -2.04845638 [kcal/mol]      -8.57074148 [kJ/mol]
      Exch-Disp20 (SS)              0.35917893 [mEh]       0.22538818 [kcal/mol]       0.94302416 [kJ/mol]
      Exch-Disp20 (OS)              0.19672708 [mEh]       0.12344811 [kcal/mol]       0.51650688 [kJ/mol]

  Total HF                          2.36173711 [mEh]       1.48201241 [kcal/mol]       6.20073992 [kJ/mol]
  Total SAPT0                      -3.61120294 [mEh]      -2.26606405 [kcal/mol]      -9.48121200 [kJ/mol]

  Special recipe for scaled SAPT0 (see Manual):
    Electrostatics sSAPT0          -1.85998460 [mEh]      -1.16715796 [kcal/mol]      -4.88338891 [kJ/mol]
    Exchange sSAPT0                 5.13519886 [mEh]       3.22238594 [kcal/mol]      13.48246276 [kJ/mol]
    Induction sSAPT0               -0.90776169 [mEh]      -0.56962906 [kcal/mol]      -2.38332798 [kJ/mol]
    Dispersion sSAPT0              -5.96976961 [mEh]      -3.74608699 [kcal/mol]     -15.67362795 [kJ/mol]
  Total sSAPT0                     -3.60231704 [mEh]      -2.26048807 [kcal/mol]      -9.45788208 [kJ/mol]
  --------------------------------------------------------------------------------------------------------

*** Psi4 exiting successfully. Buy a developer a beer!
