                               Psi4 1.3.2 release

  ==> Input File <==

--------------------------------------------------------------------------
# Any line starting with the # character is a comment line
#! Sample  computation

memory 22 gb

molecule Dimer {
0 1
 C 1.657858   -1.586637   -0.2490251
 C 2.102226   -0.351076   -0.4944575
 C 2.580502    0.599259    0.5555385
 H 1.322499   -2.233865   -1.0473424
 H 1.623835   -1.976129    0.7610152
 H 2.122384    0.000499   -1.5212818
 H 1.983496    1.512960    0.554444
 H 2.520021    0.149260    1.545886
 H 3.615421    0.892903    0.373191

 --
0 1
 C -0.822034    2.071977   -0.329634
 H -1.674771    2.491444   -0.865536
 H -0.060574    1.816172   -1.068486
 H -0.417305    2.851551    0.316251
 C -1.233871    0.837552    0.461824
 H -0.369125    0.435741    0.996553
 H -1.972440    1.111345    1.220523
 C -1.810963   -0.254847   -0.428873
 H -1.080925   -0.498257   -1.205113
 H -2.697973    0.129421   -0.940383
 C -2.165905   -1.513020    0.352401
 H -2.896975   -1.292958    1.131760
 H -2.586076   -2.284247   -0.293019
 H -1.278370   -1.925079    0.834893

units angstrom

no_reorient
symmetry c1
}

set globals{
  basis jun-cc-pvtz
}

energy('sapt0')

--------------------------------------------------------------------------

  //              Dimer HF             //
    Molecular point group: c1
  Charge       = 0
  Multiplicity = 1
  Basis Set: JUN-CC-PVTZ
    Blend: JUN-CC-PVTZ
  Basis Set: (JUN-CC-PVTZ AUX)
    Blend: JUN-CC-PVTZ-JKFIT
  @DF-RHF Final Energy:  -274.46915574433757
    Total Energy =                       -274.4691557443375700
  //            Monomer A HF           //
    Molecular point group: c1
  Multiplicity = 1
  Basis Set: JUN-CC-PVTZ
    Blend: JUN-CC-PVTZ
  Basis Set: (JUN-CC-PVTZ AUX)
    Blend: JUN-CC-PVTZ-JKFIT
  @DF-RHF Final Energy:  -117.11694822540329
    Total Energy =                       -117.1169482254032914
  //            Monomer B HF           //
    Molecular point group: c1

    Geometry (in Angstrom), charge = 0, multiplicity = 1:

       Center              X                  Y                   Z               Mass
    ------------   -----------------  -----------------  -----------------  -----------------
      Gh(C)           1.639556652181    -1.574936613873    -0.241163441122    12.000000000000
      Gh(C)           2.083924652181    -0.339375613873    -0.486595841122    12.000000000000
      Gh(C)           2.562200652181     0.610959386127     0.563400158878    12.000000000000
      Gh(H)           1.304197652181    -2.222164613873    -1.039480741122     1.007825032230
      Gh(H)           1.605533652181    -1.964428613873     0.768876858878     1.007825032230
      Gh(H)           2.104082652181     0.012199386127    -1.513420141122     1.007825032230
      Gh(H)           1.965194652181     1.524660386127     0.562305658878     1.007825032230
      Gh(H)           2.501719652181     0.160960386127     1.553747658878     1.007825032230
      Gh(H)           3.597119652181     0.904603386127     0.381052658878     1.007825032230
         C           -0.840335347819     2.083677386127    -0.321772341122    12.000000000000
         H           -1.693072347819     2.503144386127    -0.857674341122     1.007825032230
         H           -0.078875347819     1.827872386127    -1.060624341122     1.007825032230
         H           -0.435606347819     2.863251386127     0.324112658878     1.007825032230
         C           -1.252172347819     0.849252386127     0.469685658878    12.000000000000
         H           -0.387426347819     0.447441386127     1.004414658878     1.007825032230
         H           -1.990741347819     1.123045386127     1.228384658878     1.007825032230
         C           -1.829264347819    -0.243146613873    -0.421011341122    12.000000000000
         H           -1.099226347819    -0.486556613873    -1.197251341122     1.007825032230
         H           -2.716274347819     0.141121386127    -0.932521341122     1.007825032230
         C           -2.184206347819    -1.501319613873     0.360262658878    12.000000000000
         H           -2.915276347819    -1.281257613873     1.139621658878     1.007825032230
         H           -2.604377347819    -2.272546613873    -0.285157341122     1.007825032230
         H           -1.296671347819    -1.913378613873     0.842754658878     1.007825032230

  Charge       = 0
  Multiplicity = 1
  Basis Set: JUN-CC-PVTZ
    Blend: JUN-CC-PVTZ
  Basis Set: (JUN-CC-PVTZ AUX)
    Blend: JUN-CC-PVTZ-JKFIT

    Orbital Energies [Eh]
    ---------------------

    Doubly Occupied:

       1A    -11.213232     2A    -11.212603     3A    -11.207569
       4A    -11.207465     5A     -1.071821     6A     -0.980266
       7A     -0.859918     8A     -0.787279     9A     -0.639791
      10A     -0.584054    11A     -0.575698    12A     -0.567080
      13A     -0.513674    14A     -0.494204    15A     -0.469083
      16A     -0.462159    17A     -0.455655

  @DF-RHF Final Energy:  -157.35584532574242

   => Energetics <=

    Nuclear Repulsion Energy =            131.1571318775149280
    One-Electron Energy =                -470.4228491569068638
    Two-Electron Energy =                 181.9098719536495139
    Total Energy =                       -157.3558453257424219

  Dipole Moment: [D]
     X:    -0.0023      Y:     0.0001      Z:    -0.0004     Total:     0.0024

    SAPT Results
  --------------------------------------------------------------------------------------------------------
    Electrostatics                 -2.71755156 [mEh]      -1.70528935 [kcal/mol]      -7.13493065 [kJ/mol]
      Elst10,r                     -2.71755156 [mEh]      -1.70528935 [kcal/mol]      -7.13493065 [kJ/mol]

    Exchange                        7.05367009 [mEh]       4.42624480 [kcal/mol]      18.51940826 [kJ/mol]
      Exch10                        7.05367009 [mEh]       4.42624480 [kcal/mol]      18.51940826 [kJ/mol]
      Exch10(S^2)                   7.02871677 [mEh]       4.41058636 [kcal/mol]      18.45389334 [kJ/mol]

    Induction                      -0.69831171 [mEh]      -0.43819722 [kcal/mol]      -1.83341715 [kJ/mol]
      Ind20,r                      -2.03837880 [mEh]      -1.27910201 [kcal/mol]      -5.35176280 [kJ/mol]
      Exch-Ind20,r                  1.89821707 [mEh]       1.19114920 [kcal/mol]       4.98376824 [kJ/mol]
      delta HF,r (2)               -0.55814999 [mEh]      -0.35024441 [kcal/mol]      -1.46542259 [kJ/mol]

    Dispersion                     -7.83992003 [mEh]      -4.91962409 [kcal/mol]     -20.58370720 [kJ/mol]
      Disp20                       -8.78243013 [mEh]      -5.51105811 [kcal/mol]     -23.05826712 [kJ/mol]
      Exch-Disp20                   0.94251010 [mEh]       0.59143401 [kcal/mol]       2.47455992 [kJ/mol]
      Disp20 (SS)                  -4.39121506 [mEh]      -2.75552905 [kcal/mol]     -11.52913356 [kJ/mol]
      Disp20 (OS)                  -4.39121506 [mEh]      -2.75552905 [kcal/mol]     -11.52913356 [kJ/mol]
      Exch-Disp20 (SS)              0.60737054 [mEh]       0.38113077 [kcal/mol]       1.59465114 [kJ/mol]
      Exch-Disp20 (OS)              0.33513956 [mEh]       0.21030325 [kcal/mol]       0.87990878 [kJ/mol]

  Total HF                          3.63780681 [mEh]       2.28275824 [kcal/mol]       9.55106046 [kJ/mol]
  Total SAPT0                      -4.20211322 [mEh]      -2.63686586 [kcal/mol]     -11.03264674 [kJ/mol]

  Special recipe for scaled SAPT0 (see Manual):
    Electrostatics sSAPT0          -2.71755156 [mEh]      -1.70528935 [kcal/mol]      -7.13493065 [kJ/mol]
    Exchange sSAPT0                 7.05367009 [mEh]       4.42624480 [kcal/mol]      18.51940826 [kJ/mol]
    Induction sSAPT0               -0.67802273 [mEh]      -0.42546569 [kcal/mol]      -1.78014844 [kJ/mol]
    Dispersion sSAPT0              -7.82984607 [mEh]      -4.91330258 [kcal/mol]     -20.55725801 [kJ/mol]
  Total sSAPT0                     -4.17175027 [mEh]      -2.61781282 [kcal/mol]     -10.95292884 [kJ/mol]
  --------------------------------------------------------------------------------------------------------

*** Psi4 exiting successfully. Buy a developer a beer!
