                               Psi4 1.3.2 release

  ==> Input File <==

--------------------------------------------------------------------------
# Any line starting with the # character is a comment line
#! Sample  computation

memory 22 gb

molecule Dimer {
0 1
 C -2.029343   -2.146292   -0.557307
 C -2.440594   -0.876745   -0.626431
 C -2.059959    0.194461    0.343981
 C -1.326055    1.354014   -0.331628
 C -0.955273    2.450620    0.658355
 H -1.388474   -2.480805    0.249285
 H -2.325681   -2.876148   -1.297830
 H -3.082023   -0.577944   -1.451202
 H -2.958975    0.588766    0.829092

 H -1.432000   -0.231187    1.131296

 H -0.427570    0.970008   -0.819900

 H -1.958445    1.765711   -1.122492

 H -1.847803    2.865519    1.128723

 H -0.315824    2.057375    1.450064

H -0.421624    3.266505    0.171250

 --
0 1
 C 2.598686    0.406179   -1.626780
 H 1.646499    0.357370   -2.157416
 H 3.215011   -0.421997   -1.979135
 H 3.092925    1.335751   -1.908280
 C 2.383022    0.315222   -0.121369
 H 3.343953    0.384602    0.396062
 H 1.787652    1.167106    0.219600
 C 1.685760   -0.976146    0.287774
 H 2.287609   -1.827340   -0.043032
 H 0.731362   -1.051729   -0.240818
 C 1.454171   -1.063107    1.790965
 H 0.851278   -0.222841    2.139466
 H 0.938335   -1.982814    2.068219
 H 2.401299   -1.035142    2.331689

units angstrom

no_reorient
symmetry c1
}

set globals{
  basis jun-cc-pvtz
}

energy('sapt0')

--------------------------------------------------------------------------

  //              Dimer HF             //
    Molecular point group: c1
  Charge       = 0
  Multiplicity = 1
  Basis Set: JUN-CC-PVTZ
    Blend: JUN-CC-PVTZ
  Basis Set: (JUN-CC-PVTZ AUX)
    Blend: JUN-CC-PVTZ-JKFIT
  @DF-RHF Final Energy:  -352.56412312010065
    Total Energy =                       -352.5641231201007031
  //            Monomer A HF           //
    Molecular point group: c1
  Multiplicity = 1
  Basis Set: JUN-CC-PVTZ
    Blend: JUN-CC-PVTZ
  Basis Set: (JUN-CC-PVTZ AUX)
    Blend: JUN-CC-PVTZ-JKFIT
  @DF-RHF Final Energy:  -195.21238784481932
    Total Energy =                       -195.2123878448193182
  //            Monomer B HF           //
    Molecular point group: c1

    Geometry (in Angstrom), charge = 0, multiplicity = 1:

       Center              X                  Y                   Z               Mass
    ------------   -----------------  -----------------  -----------------  -----------------
      Gh(C)          -1.997310759129    -2.130415203429    -0.548832413120    12.000000000000
      Gh(C)          -2.408561759129    -0.860868203429    -0.617956413120    12.000000000000
      Gh(C)          -2.027926759129     0.210337796571     0.352455586880    12.000000000000
      Gh(C)          -1.294022759129     1.369890796571    -0.323153413120    12.000000000000
      Gh(C)          -0.923240759129     2.466496796571     0.666829586880    12.000000000000
      Gh(H)          -1.356441759129    -2.464928203429     0.257759586880     1.007825032230
      Gh(H)          -2.293648759129    -2.860271203429    -1.289355413120     1.007825032230
      Gh(H)          -3.049990759129    -0.562067203429    -1.442727413120     1.007825032230
      Gh(H)          -2.926942759129     0.604642796571     0.837566586880     1.007825032230
      Gh(H)          -1.399967759129    -0.215310203429     1.139770586880     1.007825032230
      Gh(H)          -0.395537759129     0.985884796571    -0.811425413120     1.007825032230
      Gh(H)          -1.926412759129     1.781587796571    -1.114017413120     1.007825032230
      Gh(H)          -1.815770759129     2.881395796571     1.137197586880     1.007825032230
      Gh(H)          -0.283791759129     2.073251796571     1.458538586880     1.007825032230
      Gh(H)          -0.389591759129     3.282381796571     0.179724586880     1.007825032230
         C            2.630718240871     0.422055796571    -1.618305413120    12.000000000000
         H            1.678531240871     0.373246796571    -2.148941413120     1.007825032230
         H            3.247043240871    -0.406120203429    -1.970660413120     1.007825032230
         H            3.124957240871     1.351627796571    -1.899805413120     1.007825032230
         C            2.415054240871     0.331098796571    -0.112894413120    12.000000000000
         H            3.375985240871     0.400478796571     0.404536586880     1.007825032230
         H            1.819684240871     1.182982796571     0.228074586880     1.007825032230
         C            1.717792240871    -0.960269203429     0.296248586880    12.000000000000
         H            2.319641240871    -1.811463203429    -0.034557413120     1.007825032230
         H            0.763394240871    -1.035852203429    -0.232343413120     1.007825032230
         C            1.486203240871    -1.047230203429     1.799439586880    12.000000000000
         H            0.883310240871    -0.206964203429     2.147940586880     1.007825032230
         H            0.970367240871    -1.966937203429     2.076693586880     1.007825032230
         H            2.433331240871    -1.019265203429     2.340163586880     1.007825032230

  Charge       = 0
  Multiplicity = 1
  Basis Set: JUN-CC-PVTZ
    Blend: JUN-CC-PVTZ
  Basis Set: (JUN-CC-PVTZ AUX)
    Blend: JUN-CC-PVTZ-JKFIT

    Orbital Energies [Eh]
    ---------------------

    Doubly Occupied:

       1A    -11.213492     2A    -11.212868     3A    -11.207629
       4A    -11.207528     5A     -1.071411     6A     -0.980225
       7A     -0.860074     8A     -0.787628     9A     -0.638863
      10A     -0.584333    11A     -0.575573    12A     -0.566699
      13A     -0.514082    14A     -0.493855    15A     -0.469589
      16A     -0.461550    17A     -0.455925

  @DF-RHF Final Energy:  -157.35592112034118

   => Energetics <=

    Nuclear Repulsion Energy =            131.0912308779637385
    One-Electron Energy =                -470.2916534669467978
    Two-Electron Energy =                 181.8445014686419086
    Total Energy =                       -157.3559211203411792

  Dipole Moment: [D]
     X:     0.0027      Y:    -0.0010      Z:    -0.0000     Total:     0.0029

    SAPT Results
  --------------------------------------------------------------------------------------------------------
    Electrostatics                 -2.44302959 [mEh]      -1.53302422 [kcal/mol]      -6.41417332 [kJ/mol]
      Elst10,r                     -2.44302959 [mEh]      -1.53302422 [kcal/mol]      -6.41417332 [kJ/mol]

    Exchange                        7.33423293 [mEh]       4.60230065 [kcal/mol]      19.25602590 [kJ/mol]
      Exch10                        7.33423293 [mEh]       4.60230065 [kcal/mol]      19.25602590 [kJ/mol]
      Exch10(S^2)                   7.31883212 [mEh]       4.59263649 [kcal/mol]      19.21559108 [kJ/mol]

    Induction                      -0.70535827 [mEh]      -0.44261900 [kcal/mol]      -1.85191789 [kJ/mol]
      Ind20,r                      -1.33532086 [mEh]      -0.83792649 [kcal/mol]      -3.50588444 [kJ/mol]
      Exch-Ind20,r                  1.16470701 [mEh]       0.73086469 [kcal/mol]       3.05793785 [kJ/mol]
      delta HF,r (2)               -0.53474443 [mEh]      -0.33555719 [kcal/mol]      -1.40397130 [kJ/mol]

    Dispersion                     -9.13057069 [mEh]      -5.72951961 [kcal/mol]     -23.97231005 [kJ/mol]
      Disp20                       -9.98368270 [mEh]      -6.26485547 [kcal/mol]     -26.21215531 [kJ/mol]
      Exch-Disp20                   0.85311200 [mEh]       0.53533586 [kcal/mol]       2.23984525 [kJ/mol]
      Disp20 (SS)                  -4.99184135 [mEh]      -3.13242774 [kcal/mol]     -13.10607765 [kJ/mol]
      Disp20 (OS)                  -4.99184135 [mEh]      -3.13242774 [kcal/mol]     -13.10607765 [kJ/mol]
      Exch-Disp20 (SS)              0.55977296 [mEh]       0.35126284 [kcal/mol]       1.46968370 [kJ/mol]
      Exch-Disp20 (OS)              0.29333904 [mEh]       0.18407303 [kcal/mol]       0.77016155 [kJ/mol]

  Total HF                          4.18584506 [mEh]       2.62665743 [kcal/mol]      10.98993469 [kJ/mol]
  Total SAPT0                      -4.94472563 [mEh]      -3.10286218 [kcal/mol]     -12.98237536 [kJ/mol]

  Special recipe for scaled SAPT0 (see Manual):
    Electrostatics sSAPT0          -2.44302959 [mEh]      -1.53302422 [kcal/mol]      -6.41417332 [kJ/mol]
    Exchange sSAPT0                 7.33423293 [mEh]       4.60230065 [kcal/mol]      19.25602590 [kJ/mol]
    Induction sSAPT0               -0.69799021 [mEh]      -0.43799547 [kcal/mol]      -1.83257305 [kJ/mol]
    Dispersion sSAPT0              -9.12517381 [mEh]      -5.72613302 [kcal/mol]     -23.95814055 [kJ/mol]
  Total sSAPT0                     -4.93196069 [mEh]      -3.09485206 [kcal/mol]     -12.94886101 [kJ/mol]
  --------------------------------------------------------------------------------------------------------

*** Psi4 exiting successfully. Buy a developer a beer!
