                               Psi4 1.3.2 release

  ==> Input File <==

--------------------------------------------------------------------------
# Any line starting with the # character is a comment line
#! Sample  computation

memory 22 gb

molecule Dimer {
0 1
 C 0.934680   -1.914568    0.209223
 C 1.437889   -0.711798    0.502559
 C 2.127425    0.184461   -0.475439
 C 3.577688    0.451977   -0.070772
 H 0.459346   -2.527266    0.962754
 H 0.989460   -2.309806   -0.797840
 H 1.369834   -0.350362    1.525581
 H 2.090633   -0.267554   -1.468857
 H 1.592408    1.136344   -0.534889

 H 3.624251    0.902805    0.920999

 H 4.145201   -0.477704   -0.042895

 H 4.062724    1.130422   -0.771896

 --
0 1
 C -2.815629   -1.286055   -0.345194
 H -1.977743   -1.795925   -0.823049
 H -3.518716   -0.994607   -1.126890
 H -3.317031   -2.001185    0.306854
 C -2.325634   -0.067039    0.424903
 H -3.164895    0.416184    0.933120
 H -1.625946   -0.381968    1.203492
 C -1.633671    0.947468   -0.476037
 H -2.338877    1.292594   -1.237400
 H -0.818870    0.448136   -1.007062
 C -1.089278    2.138035    0.302577
 H -0.362055    1.809227    1.047114
 H -0.599170    2.860131   -0.350924
 H -1.891377    2.655642    0.830859

units angstrom

no_reorient
symmetry c1
}

set globals{
  basis jun-cc-pvtz
}

energy('sapt0')

--------------------------------------------------------------------------

  //              Dimer HF             //
    Molecular point group: c1
  Charge       = 0
  Multiplicity = 1
  Basis Set: JUN-CC-PVTZ
    Blend: JUN-CC-PVTZ
  Basis Set: (JUN-CC-PVTZ AUX)
    Blend: JUN-CC-PVTZ-JKFIT
  @DF-RHF Final Energy:  -313.51652635065085
    Total Energy =                       -313.5165263506508495
  //            Monomer A HF           //
    Molecular point group: c1
  Multiplicity = 1
  Basis Set: JUN-CC-PVTZ
    Blend: JUN-CC-PVTZ
  Basis Set: (JUN-CC-PVTZ AUX)
    Blend: JUN-CC-PVTZ-JKFIT
  @DF-RHF Final Energy:  -156.16449063365729
    Total Energy =                       -156.1644906336572944
  //            Monomer B HF           //
    Molecular point group: c1

    Geometry (in Angstrom), charge = 0, multiplicity = 1:

       Center              X                  Y                   Z               Mass
    ------------   -----------------  -----------------  -----------------  -----------------
      Gh(C)           0.923546435529    -1.901136967444     0.205477286134    12.000000000000
      Gh(C)           1.426755435529    -0.698366967444     0.498813286134    12.000000000000
      Gh(C)           2.116291435529     0.197892032556    -0.479184713866    12.000000000000
      Gh(C)           3.566554435529     0.465408032556    -0.074517713866    12.000000000000
      Gh(H)           0.448212435529    -2.513834967444     0.959008286134     1.007825032230
      Gh(H)           0.978326435529    -2.296374967444    -0.801585713866     1.007825032230
      Gh(H)           1.358700435529    -0.336930967444     1.521835286134     1.007825032230
      Gh(H)           2.079499435529    -0.254122967444    -1.472602713866     1.007825032230
      Gh(H)           1.581274435529     1.149775032556    -0.538634713866     1.007825032230
      Gh(H)           3.613117435529     0.916236032556     0.917253286134     1.007825032230
      Gh(H)           4.134067435529    -0.464272967444    -0.046640713866     1.007825032230
      Gh(H)           4.051590435529     1.143853032556    -0.775641713866     1.007825032230
         C           -2.826762564471    -1.272623967444    -0.348939713866    12.000000000000
         H           -1.988876564471    -1.782493967444    -0.826794713866     1.007825032230
         H           -3.529849564471    -0.981175967444    -1.130635713866     1.007825032230
         H           -3.328164564471    -1.987753967444     0.303108286134     1.007825032230
         C           -2.336767564471    -0.053607967444     0.421157286134    12.000000000000
         H           -3.176028564471     0.429615032556     0.929374286134     1.007825032230
         H           -1.637079564471    -0.368536967444     1.199746286134     1.007825032230
         C           -1.644804564471     0.960899032556    -0.479782713866    12.000000000000
         H           -2.350010564471     1.306025032556    -1.241145713866     1.007825032230
         H           -0.830003564471     0.461567032556    -1.010807713866     1.007825032230
         C           -1.100411564471     2.151466032556     0.298831286134    12.000000000000
         H           -0.373188564471     1.822658032556     1.043368286134     1.007825032230
         H           -0.610303564471     2.873562032556    -0.354669713866     1.007825032230
         H           -1.902510564471     2.669073032556     0.827113286134     1.007825032230

  Charge       = 0
  Multiplicity = 1
  Basis Set: JUN-CC-PVTZ
    Blend: JUN-CC-PVTZ
  Basis Set: (JUN-CC-PVTZ AUX)
    Blend: JUN-CC-PVTZ-JKFIT

    Orbital Energies [Eh]
    ---------------------

    Doubly Occupied:

       1A    -11.213245     2A    -11.212613     3A    -11.207594
       4A    -11.207474     5A     -1.071808     6A     -0.980261
       7A     -0.859915     8A     -0.787276     9A     -0.639755
      10A     -0.584053    11A     -0.575705    12A     -0.567065
      13A     -0.513677    14A     -0.494190    15A     -0.469101
      16A     -0.462123    17A     -0.455666

  @DF-RHF Final Energy:  -157.35584749875389

   => Energetics <=

    Nuclear Repulsion Energy =            131.1545036650247482
    One-Electron Energy =                -470.4176566520561664
    Two-Electron Energy =                 181.9073054882775011
    Total Energy =                       -157.3558474987538887

  Dipole Moment: [D]
     X:    -0.0024      Y:     0.0005      Z:     0.0006     Total:     0.0025

    SAPT Results
  --------------------------------------------------------------------------------------------------------
    Electrostatics                 -2.83806704 [mEh]      -1.78091395 [kcal/mol]      -7.45134398 [kJ/mol]
      Elst10,r                     -2.83806704 [mEh]      -1.78091395 [kcal/mol]      -7.45134398 [kJ/mol]

    Exchange                        7.38387832 [mEh]       4.63345360 [kcal/mol]      19.38636987 [kJ/mol]
      Exch10                        7.38387832 [mEh]       4.63345360 [kcal/mol]      19.38636987 [kJ/mol]
      Exch10(S^2)                   7.35602797 [mEh]       4.61597724 [kcal/mol]      19.31324877 [kJ/mol]

    Induction                      -0.73402953 [mEh]      -0.46061048 [kcal/mol]      -1.92719426 [kJ/mol]
      Ind20,r                      -2.15002102 [mEh]      -1.34915856 [kcal/mol]      -5.64487941 [kJ/mol]
      Exch-Ind20,r                  2.00170731 [mEh]       1.25609030 [kcal/mol]       5.25548181 [kJ/mol]
      delta HF,r (2)               -0.58571581 [mEh]      -0.36754222 [kcal/mol]      -1.53779666 [kJ/mol]

    Dispersion                     -8.22152250 [mEh]      -5.15908326 [kcal/mol]     -21.58560436 [kJ/mol]
      Disp20                       -9.21527396 [mEh]      -5.78267171 [kcal/mol]     -24.19469844 [kJ/mol]
      Exch-Disp20                   0.99375145 [mEh]       0.62358845 [kcal/mol]       2.60909408 [kJ/mol]
      Disp20 (SS)                  -4.60763698 [mEh]      -2.89133586 [kcal/mol]     -12.09734922 [kJ/mol]
      Disp20 (OS)                  -4.60763698 [mEh]      -2.89133586 [kcal/mol]     -12.09734922 [kJ/mol]
      Exch-Disp20 (SS)              0.64078718 [mEh]       0.40210003 [kcal/mol]       1.68238651 [kJ/mol]
      Exch-Disp20 (OS)              0.35296427 [mEh]       0.22148842 [kcal/mol]       0.92670757 [kJ/mol]

  Total HF                          3.81178176 [mEh]       2.39192917 [kcal/mol]      10.00783163 [kJ/mol]
  Total SAPT0                      -4.40974074 [mEh]      -2.76715409 [kcal/mol]     -11.57777273 [kJ/mol]

  Special recipe for scaled SAPT0 (see Manual):
    Electrostatics sSAPT0          -2.83806704 [mEh]      -1.78091395 [kcal/mol]      -7.45134398 [kJ/mol]
    Exchange sSAPT0                 7.38387832 [mEh]       4.63345360 [kcal/mol]      19.38636987 [kJ/mol]
    Induction sSAPT0               -0.71120759 [mEh]      -0.44628950 [kcal/mol]      -1.86727528 [kJ/mol]
    Dispersion sSAPT0              -8.21019251 [mEh]      -5.15197358 [kcal/mol]     -21.55585747 [kJ/mol]
  Total sSAPT0                     -4.37558882 [mEh]      -2.74572344 [kcal/mol]     -11.48810686 [kJ/mol]
  --------------------------------------------------------------------------------------------------------

*** Psi4 exiting successfully. Buy a developer a beer!
