                               Psi4 1.3.2 release

  ==> Input File <==

--------------------------------------------------------------------------
# Any line starting with the # character is a comment line
#! Sample  computation

memory 22 gb

molecule Dimer {
0 1
 C 1.614871    1.261418    0.037696
 C 1.604923   -0.003650    0.465349
 C 1.417469   -1.194143   -0.418805
 H 1.753093    2.085548    0.723289
 H 1.484294    1.496581   -1.011159
 H 1.738253   -0.196059    1.525231
 H 0.524368   -1.753288   -0.133213
 H 1.317368   -0.894612   -1.461398
 H 2.263456   -1.878140   -0.336880

 --
0 1
 C -2.091873   -0.341899    0.667203
 C -2.009392    0.425552   -0.646403
 H -2.906733    0.027491    1.288981
 H -1.167585   -0.239584    1.234932
 H -2.264447   -1.404039    0.494254
 H -1.826274    1.484802   -0.470280
 H -2.934558    0.335516   -1.214935
 H -1.197225    0.052112   -1.269060

units angstrom

no_reorient
symmetry c1
}

set globals{
  basis jun-cc-pvtz
}

energy('sapt0')

--------------------------------------------------------------------------

  //              Dimer HF             //
    Molecular point group: c1
  Charge       = 0
  Multiplicity = 1
  Basis Set: JUN-CC-PVTZ
    Blend: JUN-CC-PVTZ
  Basis Set: (JUN-CC-PVTZ AUX)
    Blend: JUN-CC-PVTZ-JKFIT
  @DF-RHF Final Energy:  -196.37449992204273
    Total Energy =                       -196.3744999220427303
  //            Monomer A HF           //
    Molecular point group: c1
  Multiplicity = 1
  Basis Set: JUN-CC-PVTZ
    Blend: JUN-CC-PVTZ
  Basis Set: (JUN-CC-PVTZ AUX)
    Blend: JUN-CC-PVTZ-JKFIT
  @DF-RHF Final Energy:  -117.11693295352073
    Total Energy =                       -117.1169329535207311
  //            Monomer B HF           //
    Molecular point group: c1

    Geometry (in Angstrom), charge = 0, multiplicity = 1:

       Center              X                  Y                   Z               Mass
    ------------   -----------------  -----------------  -----------------  -----------------
      Gh(C)           1.570611766452     1.249256787562     0.029022445594    12.000000000000
      Gh(C)           1.560663766452    -0.015811212438     0.456675445594    12.000000000000
      Gh(C)           1.373209766452    -1.206304212438    -0.427478554406    12.000000000000
      Gh(H)           1.708833766452     2.073386787562     0.714615445594     1.007825032230
      Gh(H)           1.440034766452     1.484419787562    -1.019832554406     1.007825032230
      Gh(H)           1.693993766452    -0.208220212438     1.516557445594     1.007825032230
      Gh(H)           0.480108766452    -1.765449212438    -0.141886554406     1.007825032230
      Gh(H)           1.273108766452    -0.906773212438    -1.470071554406     1.007825032230
      Gh(H)           2.219196766452    -1.890301212438    -0.345553554406     1.007825032230
         C           -2.136132233548    -0.354060212438     0.658529445594    12.000000000000
         C           -2.053651233548     0.413390787562    -0.655076554406    12.000000000000
         H           -2.950992233548     0.015329787562     1.280307445594     1.007825032230
         H           -1.211844233548    -0.251745212438     1.226258445594     1.007825032230
         H           -2.308706233548    -1.416200212438     0.485580445594     1.007825032230
         H           -1.870533233548     1.472640787562    -0.478953554406     1.007825032230
         H           -2.978817233548     0.323354787562    -1.223608554406     1.007825032230
         H           -1.241484233548     0.039950787562    -1.277733554406     1.007825032230

  Charge       = 0
  Multiplicity = 1
  Basis Set: JUN-CC-PVTZ
    Blend: JUN-CC-PVTZ
  Basis Set: (JUN-CC-PVTZ AUX)
    Blend: JUN-CC-PVTZ-JKFIT

    Orbital Energies [Eh]
    ---------------------

    Doubly Occupied:

       1A    -11.210450     2A    -11.209828     3A     -1.018669
       4A     -0.841336     5A     -0.597765     6A     -0.596840
       7A     -0.509538     8A     -0.487007     9A     -0.486164

  @DF-RHF Final Energy:   -79.26013360328622

   => Energetics <=

    Nuclear Repulsion Energy =             42.3491904210865755
    One-Electron Energy =                -189.3034556055823145
    Two-Electron Energy =                  67.6941315812095183
    Total Energy =                        -79.2601336032862207

  Dipole Moment: [D]
     X:     0.0009      Y:     0.0016      Z:     0.0005     Total:     0.0019

    SAPT Results
  --------------------------------------------------------------------------------------------------------
    Electrostatics                 -1.61576282 [mEh]      -1.01390648 [kcal/mol]      -4.24218470 [kJ/mol]
      Elst10,r                     -1.61576282 [mEh]      -1.01390648 [kcal/mol]      -4.24218470 [kJ/mol]

    Exchange                        4.65827211 [mEh]       2.92310988 [kcal/mol]      12.23029173 [kJ/mol]
      Exch10                        4.65827211 [mEh]       2.92310988 [kcal/mol]      12.23029173 [kJ/mol]
      Exch10(S^2)                   4.64602282 [mEh]       2.91542334 [kcal/mol]      12.19813124 [kJ/mol]

    Induction                      -0.47587452 [mEh]      -0.29861577 [kcal/mol]      -1.24940839 [kJ/mol]
      Ind20,r                      -1.08076837 [mEh]      -0.67819239 [kcal/mol]      -2.83755697 [kJ/mol]
      Exch-Ind20,r                  0.96750570 [mEh]       0.60711899 [kcal/mol]       2.54018586 [kJ/mol]
      delta HF,r (2)               -0.36261185 [mEh]      -0.22754237 [kcal/mol]      -0.95203728 [kJ/mol]

    Dispersion                     -5.29400006 [mEh]      -3.32203519 [kcal/mol]     -13.89939525 [kJ/mol]
      Disp20                       -5.85573972 [mEh]      -3.67453215 [kcal/mol]     -15.37424252 [kJ/mol]
      Exch-Disp20                   0.56173966 [mEh]       0.35249696 [kcal/mol]       1.47484727 [kJ/mol]
      Disp20 (SS)                  -2.92786986 [mEh]      -1.83726608 [kcal/mol]      -7.68712126 [kJ/mol]
      Disp20 (OS)                  -2.92786986 [mEh]      -1.83726608 [kcal/mol]      -7.68712126 [kJ/mol]
      Exch-Disp20 (SS)              0.36634916 [mEh]       0.22988757 [kcal/mol]       0.96184959 [kJ/mol]
      Exch-Disp20 (OS)              0.19539050 [mEh]       0.12260939 [kcal/mol]       0.51299768 [kJ/mol]

  Total HF                          2.56663476 [mEh]       1.61058763 [kcal/mol]       6.73869865 [kJ/mol]
  Total SAPT0                      -2.72736530 [mEh]      -1.71144756 [kcal/mol]      -7.16069660 [kJ/mol]

  Special recipe for scaled SAPT0 (see Manual):
    Electrostatics sSAPT0          -1.61576282 [mEh]      -1.01390648 [kcal/mol]      -4.24218470 [kJ/mol]
    Exchange sSAPT0                 4.65827211 [mEh]       2.92310988 [kcal/mol]      12.23029173 [kJ/mol]
    Induction sSAPT0               -0.46820181 [mEh]      -0.29380107 [kcal/mol]      -1.22926370 [kJ/mol]
    Dispersion sSAPT0              -5.28954524 [mEh]      -3.31923975 [kcal/mol]     -13.88769912 [kJ/mol]
  Total sSAPT0                     -2.71523777 [mEh]      -1.70383742 [kcal/mol]      -7.12885578 [kJ/mol]
  --------------------------------------------------------------------------------------------------------

*** Psi4 exiting successfully. Buy a developer a beer!
