                               Psi4 1.3.2 release

  ==> Input File <==

--------------------------------------------------------------------------
# Any line starting with the # character is a comment line
#! Sample  computation

memory 22 gb

molecule Dimer {
0 1
 C -1.208308    1.823952    0.075352
 C -1.809815    0.647537   -0.122542
 C -1.429592   -0.628117    0.559215
 C -1.004699   -1.701598   -0.443486
 H -1.518158    2.712599   -0.456664
 H -0.391762    1.919675    0.780501
 H -2.623448    0.588694   -0.840614
 H -0.622541   -0.432702    1.267935
 H -2.281214   -0.998312    1.136405
 H -1.809256   -1.909741   -1.149589
 H -0.135772   -1.373759   -1.013592
 H -0.751855   -2.633565    0.061752

 --
0 1
 C 2.410114   -0.225820    0.690121
 C 2.350404    0.367605   -0.712621
 H 3.427159   -0.513449    0.954515
 H 1.784325   -1.114424    0.769495
 H 2.065509    0.490032    1.436304
 H 2.683762   -0.353406   -1.458553
 H 2.988847    1.246711   -0.794485
 H 1.335781    0.670291   -0.969643

units angstrom

no_reorient
symmetry c1
}

set globals{
  basis jun-cc-pvtz
}

energy('sapt0')

--------------------------------------------------------------------------

  //              Dimer HF             //
    Molecular point group: c1
  Charge       = 0
  Multiplicity = 1
  Basis Set: JUN-CC-PVTZ
    Blend: JUN-CC-PVTZ
  Basis Set: (JUN-CC-PVTZ AUX)
    Blend: JUN-CC-PVTZ-JKFIT
  @DF-RHF Final Energy:  -235.42203481249251
    Total Energy =                       -235.4220348124924840
  //            Monomer A HF           //
    Molecular point group: c1
  Multiplicity = 1
  Basis Set: JUN-CC-PVTZ
    Blend: JUN-CC-PVTZ
  Basis Set: (JUN-CC-PVTZ AUX)
    Blend: JUN-CC-PVTZ-JKFIT
  @DF-RHF Final Energy:  -156.16447690778614
    Total Energy =                       -156.1644769077861383
  //            Monomer B HF           //
    Molecular point group: c1

    Geometry (in Angstrom), charge = 0, multiplicity = 1:

       Center              X                  Y                   Z               Mass
    ------------   -----------------  -----------------  -----------------  -----------------
      Gh(C)          -1.160474858152     1.804348613086     0.072169153656    12.000000000000
      Gh(C)          -1.761981858152     0.627933613086    -0.125724846344    12.000000000000
      Gh(C)          -1.381758858152    -0.647720386914     0.556032153656    12.000000000000
      Gh(C)          -0.956865858152    -1.721201386914    -0.446668846344    12.000000000000
      Gh(H)          -1.470324858152     2.692995613086    -0.459846846344     1.007825032230
      Gh(H)          -0.343928858152     1.900071613086     0.777318153656     1.007825032230
      Gh(H)          -2.575614858152     0.569090613086    -0.843796846344     1.007825032230
      Gh(H)          -0.574707858152    -0.452305386914     1.264752153656     1.007825032230
      Gh(H)          -2.233380858152    -1.017915386914     1.133222153656     1.007825032230
      Gh(H)          -1.761422858152    -1.929344386914    -1.152771846344     1.007825032230
      Gh(H)          -0.087938858152    -1.393362386914    -1.016774846344     1.007825032230
      Gh(H)          -0.704021858152    -2.653168386914     0.058569153656     1.007825032230
         C            2.457947141848    -0.245423386914     0.686938153656    12.000000000000
         C            2.398237141848     0.348001613086    -0.715803846344    12.000000000000
         H            3.474992141848    -0.533052386914     0.951332153656     1.007825032230
         H            1.832158141848    -1.134027386914     0.766312153656     1.007825032230
         H            2.113342141848     0.470428613086     1.433121153656     1.007825032230
         H            2.731595141848    -0.373009386914    -1.461735846344     1.007825032230
         H            3.036680141848     1.227107613086    -0.797667846344     1.007825032230
         H            1.383614141848     0.650687613086    -0.972825846344     1.007825032230

  Charge       = 0
  Multiplicity = 1
  Basis Set: JUN-CC-PVTZ
    Blend: JUN-CC-PVTZ
  Basis Set: (JUN-CC-PVTZ AUX)
    Blend: JUN-CC-PVTZ-JKFIT

    Orbital Energies [Eh]
    ---------------------

    Doubly Occupied:

       1A    -11.210595     2A    -11.209983     3A     -1.018404
       4A     -0.841548     5A     -0.597106     6A     -0.596927
       7A     -0.509757     8A     -0.486675     9A     -0.486441

  @DF-RHF Final Energy:   -79.26013918188207

   => Energetics <=

    Nuclear Repulsion Energy =             42.3345223161542705
    One-Electron Energy =                -189.2744530345485146
    Two-Electron Energy =                  67.6797915365121696
    Total Energy =                        -79.2601391818820673

  Dipole Moment: [D]
     X:     0.0020      Y:     0.0008      Z:     0.0002     Total:     0.0021

    SAPT Results
  --------------------------------------------------------------------------------------------------------
    Electrostatics                 -1.78301977 [mEh]      -1.11886180 [kcal/mol]      -4.68131776 [kJ/mol]
      Elst10,r                     -1.78301977 [mEh]      -1.11886180 [kcal/mol]      -4.68131776 [kJ/mol]

    Exchange                        4.83497041 [mEh]       3.03398974 [kcal/mol]      12.69421307 [kJ/mol]
      Exch10                        4.83497041 [mEh]       3.03398974 [kcal/mol]      12.69421307 [kJ/mol]
      Exch10(S^2)                   4.82555857 [mEh]       3.02808372 [kcal/mol]      12.66950228 [kJ/mol]

    Induction                      -0.47067347 [mEh]      -0.29535206 [kcal/mol]      -1.23575302 [kJ/mol]
      Ind20,r                      -0.87037163 [mEh]      -0.54616644 [kcal/mol]      -2.28516039 [kJ/mol]
      Exch-Ind20,r                  0.74899623 [mEh]       0.47000223 [kcal/mol]       1.96648933 [kJ/mol]
      delta HF,r (2)               -0.34929807 [mEh]      -0.21918785 [kcal/mol]      -0.91708196 [kJ/mol]

    Dispersion                     -5.57659741 [mEh]      -3.49936771 [kcal/mol]     -14.64135449 [kJ/mol]
      Disp20                       -6.10633597 [mEh]      -3.83178367 [kcal/mol]     -16.03218287 [kJ/mol]
      Exch-Disp20                   0.52973855 [mEh]       0.33241596 [kcal/mol]       1.39082838 [kJ/mol]
      Disp20 (SS)                  -3.05316798 [mEh]      -1.91589183 [kcal/mol]      -8.01609144 [kJ/mol]
      Disp20 (OS)                  -3.05316798 [mEh]      -1.91589183 [kcal/mol]      -8.01609144 [kJ/mol]
      Exch-Disp20 (SS)              0.35114164 [mEh]       0.22034471 [kcal/mol]       0.92192225 [kJ/mol]
      Exch-Disp20 (OS)              0.17859691 [mEh]       0.11207125 [kcal/mol]       0.46890613 [kJ/mol]

  Total HF                          2.58127718 [mEh]       1.61977588 [kcal/mol]       6.77714229 [kJ/mol]
  Total SAPT0                      -2.99532024 [mEh]      -1.87959183 [kcal/mol]      -7.86421220 [kJ/mol]

  Special recipe for scaled SAPT0 (see Manual):
    Electrostatics sSAPT0          -1.78301977 [mEh]      -1.11886180 [kcal/mol]      -4.68131776 [kJ/mol]
    Exchange sSAPT0                 4.83497041 [mEh]       3.03398974 [kcal/mol]      12.69421307 [kJ/mol]
    Induction sSAPT0               -0.46628235 [mEh]      -0.29259659 [kcal/mol]      -1.22422415 [kJ/mol]
    Dispersion sSAPT0              -5.57349173 [mEh]      -3.49741886 [kcal/mol]     -14.63320053 [kJ/mol]
  Total sSAPT0                     -2.98782344 [mEh]      -1.87488752 [kcal/mol]      -7.84452937 [kJ/mol]
  --------------------------------------------------------------------------------------------------------

*** Psi4 exiting successfully. Buy a developer a beer!
