                               Psi4 1.3.2 release

  ==> Input File <==

--------------------------------------------------------------------------
# Any line starting with the # character is a comment line
#! Sample  computation

memory 22 gb

molecule Dimer {
0 1
 C  0.025404    2.472971   -0.172583
 C -1.030989    1.725138    0.159447
 C -1.367399    0.407233   -0.460194
 C -1.349052   -0.733510    0.558719
 C -1.719503   -2.069213   -0.073091
 H  0.706964    2.157147   -0.952905
 H  0.229650    3.412412    0.322043
 H -1.691471    2.072517    0.949337
 H -2.364688    0.454963   -0.909496
 H -0.662177    0.191608   -1.267271
 H -0.355374   -0.792487    1.008278
 H -2.044386   -0.500486    1.369230
 H -2.721330   -2.029365   -0.502655
 H -1.025417   -2.324212   -0.875202
 H -1.698795   -2.877355    0.657433

 --
0 1
 C 2.327634   -0.838315   -0.700013
 C 2.591856   -0.337023    0.714907
 H 2.385114   -0.025381   -1.423656
 H 1.336647   -1.284534   -0.781734
 H 3.054986   -1.594283   -0.994329
 H 1.873086    0.430559    0.999967
 H 3.589214    0.093573    0.798874
 H 2.520280   -1.148350    1.438940

units angstrom

no_reorient
symmetry c1
}

set globals{
  basis jun-cc-pvtz
}

energy('sapt0')

--------------------------------------------------------------------------

  //              Dimer HF             //
    Molecular point group: c1
  Charge       = 0
  Multiplicity = 1
  Basis Set: JUN-CC-PVTZ
    Blend: JUN-CC-PVTZ
  Basis Set: (JUN-CC-PVTZ AUX)
    Blend: JUN-CC-PVTZ-JKFIT
  @DF-RHF Final Energy:  -274.46955751747055
    Total Energy =                       -274.4695575174705482
  //            Monomer A HF           //
    Molecular point group: c1
  Multiplicity = 1
  Basis Set: JUN-CC-PVTZ
    Blend: JUN-CC-PVTZ
  Basis Set: (JUN-CC-PVTZ AUX)
    Blend: JUN-CC-PVTZ-JKFIT
  @DF-RHF Final Energy:  -195.21237800402861
    Total Energy =                       -195.2123780040286078
  //            Monomer B HF           //
    Molecular point group: c1

    Geometry (in Angstrom), charge = 0, multiplicity = 1:

       Center              X                  Y                   Z               Mass
    ------------   -----------------  -----------------  -----------------  -----------------
      Gh(C)           0.056442885436     2.435675223208    -0.174199789544    12.000000000000
      Gh(C)          -0.999950114564     1.687842223208     0.157830210456    12.000000000000
      Gh(C)          -1.336360114564     0.369937223208    -0.461810789544    12.000000000000
      Gh(C)          -1.318013114564    -0.770805776792     0.557102210456    12.000000000000
      Gh(C)          -1.688464114564    -2.106508776792    -0.074707789544    12.000000000000
      Gh(H)           0.738002885436     2.119851223208    -0.954521789544     1.007825032230
      Gh(H)           0.260688885436     3.375116223208     0.320426210456     1.007825032230
      Gh(H)          -1.660432114564     2.035221223208     0.947720210456     1.007825032230
      Gh(H)          -2.333649114564     0.417667223208    -0.911112789544     1.007825032230
      Gh(H)          -0.631138114564     0.154312223208    -1.268887789544     1.007825032230
      Gh(H)          -0.324335114564    -0.829782776792     1.006661210456     1.007825032230
      Gh(H)          -2.013347114564    -0.537781776792     1.367613210456     1.007825032230
      Gh(H)          -2.690291114564    -2.066660776792    -0.504271789544     1.007825032230
      Gh(H)          -0.994378114564    -2.361507776792    -0.876818789544     1.007825032230
      Gh(H)          -1.667756114564    -2.914650776792     0.655816210456     1.007825032230
         C            2.358672885436    -0.875610776792    -0.701629789544    12.000000000000
         C            2.622894885436    -0.374318776792     0.713290210456    12.000000000000
         H            2.416152885436    -0.062676776792    -1.425272789544     1.007825032230
         H            1.367685885436    -1.321829776792    -0.783350789544     1.007825032230
         H            3.086024885436    -1.631578776792    -0.995945789544     1.007825032230
         H            1.904124885436     0.393263223208     0.998350210456     1.007825032230
         H            3.620252885436     0.056277223208     0.797257210456     1.007825032230
         H            2.551318885436    -1.185645776792     1.437323210456     1.007825032230

  Charge       = 0
  Multiplicity = 1
  Basis Set: JUN-CC-PVTZ
    Blend: JUN-CC-PVTZ
  Basis Set: (JUN-CC-PVTZ AUX)
    Blend: JUN-CC-PVTZ-JKFIT

    Orbital Energies [Eh]
    ---------------------

    Doubly Occupied:

       1A    -11.210595     2A    -11.209981     3A     -1.018430
       4A     -0.841490     5A     -0.597181     6A     -0.596914
       7A     -0.509715     8A     -0.486710     9A     -0.486389

  @DF-RHF Final Energy:   -79.26014167625623

   => Energetics <=

    Nuclear Repulsion Energy =             42.3355548167358506
    One-Electron Energy =                -189.2765836122316614
    Two-Electron Energy =                  67.6808871192395856
    Total Energy =                        -79.2601416762562252

  Dipole Moment: [D]
     X:     0.0017      Y:    -0.0001      Z:    -0.0002     Total:     0.0017

    SAPT Results
  --------------------------------------------------------------------------------------------------------
    Electrostatics                 -1.95090273 [mEh]      -1.22420994 [kcal/mol]      -5.12209441 [kJ/mol]
      Elst10,r                     -1.95090273 [mEh]      -1.22420994 [kcal/mol]      -5.12209441 [kJ/mol]

    Exchange                        5.45815668 [mEh]       3.42504502 [kcal/mol]      14.33038838 [kJ/mol]
      Exch10                        5.45815668 [mEh]       3.42504502 [kcal/mol]      14.33038838 [kJ/mol]
      Exch10(S^2)                   5.44778768 [mEh]       3.41853838 [kcal/mol]      14.30316457 [kJ/mol]

    Induction                      -0.54509113 [mEh]      -0.34204985 [kcal/mol]      -1.43113658 [kJ/mol]
      Ind20,r                      -1.04858338 [mEh]      -0.65799601 [kcal/mol]      -2.75305529 [kJ/mol]
      Exch-Ind20,r                  0.90561188 [mEh]       0.56828004 [kcal/mol]       2.37768367 [kJ/mol]
      delta HF,r (2)               -0.40211963 [mEh]      -0.25233388 [kcal/mol]      -1.05576495 [kJ/mol]

    Dispersion                     -6.37728756 [mEh]      -4.00180836 [kcal/mol]     -16.74356619 [kJ/mol]
      Disp20                       -6.99370483 [mEh]      -4.38861604 [kcal/mol]     -18.36196950 [kJ/mol]
      Exch-Disp20                   0.61641726 [mEh]       0.38680767 [kcal/mol]       1.61840331 [kJ/mol]
      Disp20 (SS)                  -3.49685241 [mEh]      -2.19430802 [kcal/mol]      -9.18098475 [kJ/mol]
      Disp20 (OS)                  -3.49685241 [mEh]      -2.19430802 [kcal/mol]      -9.18098475 [kJ/mol]
      Exch-Disp20 (SS)              0.40653329 [mEh]       0.25510349 [kcal/mol]       1.06735300 [kJ/mol]
      Exch-Disp20 (OS)              0.20988398 [mEh]       0.13170419 [kcal/mol]       0.55105031 [kJ/mol]

  Total HF                          2.96216281 [mEh]       1.85878523 [kcal/mol]       7.77715740 [kJ/mol]
  Total SAPT0                      -3.41512475 [mEh]      -2.14302313 [kcal/mol]      -8.96640879 [kJ/mol]

  Special recipe for scaled SAPT0 (see Manual):
    Electrostatics sSAPT0          -1.95090273 [mEh]      -1.22420994 [kcal/mol]      -5.12209441 [kJ/mol]
    Exchange sSAPT0                 5.45815668 [mEh]       3.42504502 [kcal/mol]      14.33038838 [kJ/mol]
    Induction sSAPT0               -0.53991022 [mEh]      -0.33879878 [kcal/mol]      -1.41753409 [kJ/mol]
    Dispersion sSAPT0              -6.37376110 [mEh]      -3.99959547 [kcal/mol]     -16.73430747 [kJ/mol]
  Total sSAPT0                     -3.40641737 [mEh]      -2.13755917 [kcal/mol]      -8.94354758 [kJ/mol]
  --------------------------------------------------------------------------------------------------------

*** Psi4 exiting successfully. Buy a developer a beer!
