                               Psi4 1.3.2 release

  ==> Input File <==

--------------------------------------------------------------------------
# Any line starting with the # character is a comment line
#! Sample  computation

memory 22 gb

molecule Dimer {
0 1
 C  -2.012221   -1.499101    0.588721
 C  -2.066807   -0.482984   -0.545072
 C  -2.711783    0.826364   -0.107159
 H  -1.434061   -1.111464    1.428913
 H  -3.016265   -1.725060    0.951266
 H  -1.547802   -2.432545    0.271911
 H  -2.624329   -0.901374   -1.385848
 H  -1.055705   -0.289722   -0.910240
 H  -2.748488    1.551113   -0.920444
 H  -3.732791    0.656041    0.237537
 H  -2.155336    1.275700    0.716999

 --
0 1
 C 1.695340   -2.200708   -0.274309
 C 2.182297   -1.037357    0.167046
 C 1.848214    0.296782   -0.417766
 C 1.116480    1.195181    0.581066
 C 0.722391    2.531500   -0.033885
 H 1.028804   -2.236803   -1.127392
 H 1.952266   -3.136959    0.201404
 H 2.845281   -1.038862    1.027933
 H 2.763893    0.804005   -0.737941
 H 1.231141    0.160031   -1.310073
 H 0.227796    0.671857    0.940673
 H 1.756393    1.357523    1.452189
 H 1.602191    3.069208   -0.389996
 H 0.055855    2.381469   -0.884460
 H 0.207700    3.167773    0.685711

units angstrom

no_reorient
symmetry c1
}

set globals{
  basis jun-cc-pvtz
}

energy('sapt0')

--------------------------------------------------------------------------

  //              Dimer HF             //
    Molecular point group: c1
  Charge       = 0
  Multiplicity = 1
  Basis Set: JUN-CC-PVTZ
    Blend: JUN-CC-PVTZ
  Basis Set: (JUN-CC-PVTZ AUX)
    Blend: JUN-CC-PVTZ-JKFIT
  @DF-RHF Final Energy:  -313.51654764556145
    Total Energy =                       -313.5165476455614453
  //            Monomer A HF           //
    Molecular point group: c1
  Multiplicity = 1
  Basis Set: JUN-CC-PVTZ
    Blend: JUN-CC-PVTZ
  Basis Set: (JUN-CC-PVTZ AUX)
    Blend: JUN-CC-PVTZ-JKFIT
  @DF-RHF Final Energy:  -118.30809552419157
    Total Energy =                       -118.3080955241915717
  //            Monomer B HF           //
    Molecular point group: c1

    Geometry (in Angstrom), charge = 0, multiplicity = 1:

       Center              X                  Y                   Z               Mass
    ------------   -----------------  -----------------  -----------------  -----------------
      Gh(C)          -2.052584636471    -1.479786632645     0.590878091695    12.000000000000
      Gh(C)          -2.107170636471    -0.463669632645    -0.542914908305    12.000000000000
      Gh(C)          -2.752146636471     0.845678367355    -0.105001908305    12.000000000000
      Gh(H)          -1.474424636471    -1.092149632645     1.431070091695     1.007825032230
      Gh(H)          -3.056628636471    -1.705745632645     0.953423091695     1.007825032230
      Gh(H)          -1.588165636471    -2.413230632645     0.274068091695     1.007825032230
      Gh(H)          -2.664692636471    -0.882059632645    -1.383690908305     1.007825032230
      Gh(H)          -1.096068636471    -0.270407632645    -0.908082908305     1.007825032230
      Gh(H)          -2.788851636471     1.570427367355    -0.918286908305     1.007825032230
      Gh(H)          -3.773154636471     0.675355367355     0.239694091695     1.007825032230
      Gh(H)          -2.195699636471     1.295014367355     0.719156091695     1.007825032230
         C            1.654976363529    -2.181393632645    -0.272151908305    12.000000000000
         C            2.141933363529    -1.018042632645     0.169203091695    12.000000000000
         C            1.807850363529     0.316096367355    -0.415608908305    12.000000000000
         C            1.076116363529     1.214495367355     0.583223091695    12.000000000000
         C            0.682027363529     2.550814367355    -0.031727908305    12.000000000000
         H            0.988440363529    -2.217488632645    -1.125234908305     1.007825032230
         H            1.911902363529    -3.117644632645     0.203561091695     1.007825032230
         H            2.804917363529    -1.019547632645     1.030090091695     1.007825032230
         H            2.723529363529     0.823319367355    -0.735783908305     1.007825032230
         H            1.190777363529     0.179345367355    -1.307915908305     1.007825032230
         H            0.187432363529     0.691171367355     0.942830091695     1.007825032230
         H            1.716029363529     1.376837367355     1.454346091695     1.007825032230
         H            1.561827363529     3.088522367355    -0.387838908305     1.007825032230
         H            0.015491363529     2.400783367355    -0.882302908305     1.007825032230
         H            0.167336363529     3.187087367355     0.687868091695     1.007825032230

  Charge       = 0
  Multiplicity = 1
  Basis Set: JUN-CC-PVTZ
    Blend: JUN-CC-PVTZ
  Basis Set: (JUN-CC-PVTZ AUX)
    Blend: JUN-CC-PVTZ-JKFIT

    Orbital Energies [Eh]
    ---------------------

    Doubly Occupied:

       1A    -11.230739     2A    -11.221931     3A    -11.219375
       4A    -11.217126     5A    -11.211574     6A     -1.089718
       7A     -1.021996     8A     -0.922542     9A     -0.811716
      10A     -0.756749    11A     -0.651464    12A     -0.616222
      13A     -0.590404    14A     -0.567098    15A     -0.536603
      16A     -0.512012    17A     -0.483183    18A     -0.472912
      19A     -0.469876    20A     -0.356164

  @DF-RHF Final Energy:  -195.21227158794483

   => Energetics <=

    Nuclear Repulsion Energy =            170.6209168520766752
    One-Electron Energy =                -599.7475775623528307
    Two-Electron Energy =                 233.9143891223313290
    Total Energy =                       -195.2122715879448265

  Dipole Moment: [D]
     X:    -0.0151      Y:     0.4459      Z:     0.0928     Total:     0.4557

    SAPT Results
  --------------------------------------------------------------------------------------------------------
    Electrostatics                 -1.77968942 [mEh]      -1.11677197 [kcal/mol]      -4.67257392 [kJ/mol]
      Elst10,r                     -1.77968942 [mEh]      -1.11677197 [kcal/mol]      -4.67257392 [kJ/mol]

    Exchange                        6.15592407 [mEh]       3.86290067 [kcal/mol]      16.16237642 [kJ/mol]
      Exch10                        6.15592407 [mEh]       3.86290067 [kcal/mol]      16.16237642 [kJ/mol]
      Exch10(S^2)                   6.14465751 [mEh]       3.85583080 [kcal/mol]      16.13279606 [kJ/mol]

    Induction                      -0.55676808 [mEh]      -0.34937724 [kcal/mol]      -1.46179439 [kJ/mol]
      Ind20,r                      -1.20689697 [mEh]      -0.75733928 [kcal/mol]      -3.16870757 [kJ/mol]
      Exch-Ind20,r                  1.08243784 [mEh]       0.67924000 [kcal/mol]       2.84194016 [kJ/mol]
      delta HF,r (2)               -0.43230895 [mEh]      -0.27127796 [kcal/mol]      -1.13502699 [kJ/mol]

    Dispersion                     -7.97757818 [mEh]      -5.00600588 [kcal/mol]     -20.94512862 [kJ/mol]
      Disp20                       -8.71437086 [mEh]      -5.46835027 [kcal/mol]     -22.87957753 [kJ/mol]
      Exch-Disp20                   0.73679268 [mEh]       0.46234439 [kcal/mol]       1.93444892 [kJ/mol]
      Disp20 (SS)                  -4.35718543 [mEh]      -2.73417514 [kcal/mol]     -11.43978877 [kJ/mol]
      Disp20 (OS)                  -4.35718543 [mEh]      -2.73417514 [kcal/mol]     -11.43978877 [kJ/mol]
      Exch-Disp20 (SS)              0.48186874 [mEh]       0.30237720 [kcal/mol]       1.26514619 [kJ/mol]
      Exch-Disp20 (OS)              0.25492394 [mEh]       0.15996719 [kcal/mol]       0.66930272 [kJ/mol]

  Total HF                          3.81946657 [mEh]       2.39675146 [kcal/mol]      10.02800811 [kJ/mol]
  Total SAPT0                      -4.15811160 [mEh]      -2.60925442 [kcal/mol]     -10.91712051 [kJ/mol]

  Special recipe for scaled SAPT0 (see Manual):
    Electrostatics sSAPT0          -1.77968942 [mEh]      -1.11677197 [kcal/mol]      -4.67257392 [kJ/mol]
    Exchange sSAPT0                 6.15592407 [mEh]       3.86290067 [kcal/mol]      16.16237642 [kJ/mol]
    Induction sSAPT0               -0.55080303 [mEh]      -0.34563412 [kcal/mol]      -1.44613315 [kJ/mol]
    Dispersion sSAPT0              -7.97351789 [mEh]      -5.00345802 [kcal/mol]     -20.93446834 [kJ/mol]
  Total sSAPT0                     -4.14808627 [mEh]      -2.60296343 [kcal/mol]     -10.89079900 [kJ/mol]
  --------------------------------------------------------------------------------------------------------

*** Psi4 exiting successfully. Buy a developer a beer!
