                               Psi4 1.3.2 release

  ==> Input File <==

--------------------------------------------------------------------------
# Any line starting with the # character is a comment line
#! Sample  computation

memory 22 gb

molecule Dimer {
0 1
 C  -2.118677    1.090643   -0.190133
 C  -1.723921   -0.339646   -0.535033
 C  -1.422675   -1.158205    0.713774
 H  -3.008592    1.103947    0.440965
 H  -1.313557    1.585186    0.354791
 H  -2.331806    1.677291   -1.083630
 H  -0.845379   -0.325909   -1.183837
 H  -2.524915   -0.816666   -1.103993
 H  -1.148263   -2.184695    0.469981
 H  -0.598894   -0.710627    1.271839
 H  -2.292677   -1.191329    1.371451

 --
0 1
 C 1.736938    1.250047    0.625137
 C 1.838565    0.409972   -0.408329
 C 2.097852   -1.056798   -0.283829
 H 1.550510    2.304407    0.476578
 H 1.842661    0.896938    1.643485
 H 1.728077    0.805807   -1.412984
 H 3.014745   -1.335447   -0.805523
 H 2.192860   -1.349781    0.761033
 H 1.286745   -1.635209   -0.729679

units angstrom

no_reorient
symmetry c1
}

set globals{
  basis jun-cc-pvtz
}

energy('sapt0')

--------------------------------------------------------------------------

  //              Dimer HF             //
    Molecular point group: c1
  Charge       = 0
  Multiplicity = 1
  Basis Set: JUN-CC-PVTZ
    Blend: JUN-CC-PVTZ
  Basis Set: (JUN-CC-PVTZ AUX)
    Blend: JUN-CC-PVTZ-JKFIT
  @DF-RHF Final Energy:  -235.42177806079505
    Total Energy =                       -235.4217780607950772
  //            Monomer A HF           //
    Molecular point group: c1
  Multiplicity = 1
  Basis Set: JUN-CC-PVTZ
    Blend: JUN-CC-PVTZ
  Basis Set: (JUN-CC-PVTZ AUX)
    Blend: JUN-CC-PVTZ-JKFIT
  @DF-RHF Final Energy:  -118.30803127242791
    Total Energy =                       -118.3080312724279111
  //            Monomer B HF           //
    Molecular point group: c1

    Geometry (in Angstrom), charge = 0, multiplicity = 1:

       Center              X                  Y                   Z               Mass
    ------------   -----------------  -----------------  -----------------  -----------------
      Gh(C)          -2.146889196130     1.077092051526    -0.184712027531    12.000000000000
      Gh(C)          -1.752133196130    -0.353196948474    -0.529612027531    12.000000000000
      Gh(C)          -1.450887196130    -1.171755948474     0.719194972469    12.000000000000
      Gh(H)          -3.036804196130     1.090396051526     0.446385972469     1.007825032230
      Gh(H)          -1.341769196130     1.571635051526     0.360211972469     1.007825032230
      Gh(H)          -2.360018196130     1.663740051526    -1.078209027531     1.007825032230
      Gh(H)          -0.873591196130    -0.339459948474    -1.178416027531     1.007825032230
      Gh(H)          -2.553127196130    -0.830216948474    -1.098572027531     1.007825032230
      Gh(H)          -1.176475196130    -2.198245948474     0.475401972469     1.007825032230
      Gh(H)          -0.627106196130    -0.724177948474     1.277259972469     1.007825032230
      Gh(H)          -2.320889196130    -1.204879948474     1.376871972469     1.007825032230
         C            1.708725803870     1.236496051526     0.630557972469    12.000000000000
         C            1.810352803870     0.396421051526    -0.402908027531    12.000000000000
         C            2.069639803870    -1.070348948474    -0.278408027531    12.000000000000
         H            1.522297803870     2.290856051526     0.481998972469     1.007825032230
         H            1.814448803870     0.883387051526     1.648905972469     1.007825032230
         H            1.699864803870     0.792256051526    -1.407563027531     1.007825032230
         H            2.986532803870    -1.348997948474    -0.800102027531     1.007825032230
         H            2.164647803870    -1.363331948474     0.766453972469     1.007825032230
         H            1.258532803870    -1.648759948474    -0.724258027531     1.007825032230

  Charge       = 0
  Multiplicity = 1
  Basis Set: JUN-CC-PVTZ
    Blend: JUN-CC-PVTZ
  Basis Set: (JUN-CC-PVTZ AUX)
    Blend: JUN-CC-PVTZ-JKFIT

    Orbital Energies [Eh]
    ---------------------

    Doubly Occupied:

       1A    -11.234354     2A    -11.220820     3A    -11.217497
       4A     -1.064880     5A     -0.932931     6A     -0.758073
       7A     -0.639847     8A     -0.582771     9A     -0.568696
      10A     -0.523164    11A     -0.492990    12A     -0.358018

  @DF-RHF Final Energy:  -117.11694649866371

   => Energetics <=

    Nuclear Repulsion Energy =             70.8663591434064983
    One-Electron Energy =                -296.7785293797425084
    Two-Electron Energy =                 108.7952237376723019
    Total Energy =                       -117.1169464986637081

  Dipole Moment: [D]
     X:     0.0574      Y:    -0.3634      Z:    -0.2098     Total:     0.4235

    SAPT Results
  --------------------------------------------------------------------------------------------------------
    Electrostatics                 -2.30915259 [mEh]      -1.44901513 [kcal/mol]      -6.06267929 [kJ/mol]
      Elst10,r                     -2.30915259 [mEh]      -1.44901513 [kcal/mol]      -6.06267929 [kJ/mol]

    Exchange                        6.16193557 [mEh]       3.86667295 [kcal/mol]      16.17815961 [kJ/mol]
      Exch10                        6.16193557 [mEh]       3.86667295 [kcal/mol]      16.17815961 [kJ/mol]
      Exch10(S^2)                   6.14186853 [mEh]       3.85408069 [kcal/mol]      16.12547361 [kJ/mol]

    Induction                      -0.65307268 [mEh]      -0.40980930 [kcal/mol]      -1.71464210 [kJ/mol]
      Ind20,r                      -1.60900396 [mEh]      -1.00966523 [kcal/mol]      -4.22443931 [kJ/mol]
      Exch-Ind20,r                  1.46317533 [mEh]       0.91815638 [kcal/mol]       3.84156630 [kJ/mol]
      delta HF,r (2)               -0.50724406 [mEh]      -0.31830045 [kcal/mol]      -1.33176909 [kJ/mol]

    Dispersion                     -6.77164839 [mEh]      -4.24927352 [kcal/mol]     -17.77896039 [kJ/mol]
      Disp20                       -7.55486542 [mEh]      -4.74074963 [kcal/mol]     -19.83529643 [kJ/mol]
      Exch-Disp20                   0.78321704 [mEh]       0.49147611 [kcal/mol]       2.05633604 [kJ/mol]
      Disp20 (SS)                  -3.77743271 [mEh]      -2.37037481 [kcal/mol]      -9.91764822 [kJ/mol]
      Disp20 (OS)                  -3.77743271 [mEh]      -2.37037481 [kcal/mol]      -9.91764822 [kJ/mol]
      Exch-Disp20 (SS)              0.50685896 [mEh]       0.31805880 [kcal/mol]       1.33075802 [kJ/mol]
      Exch-Disp20 (OS)              0.27635807 [mEh]       0.17341731 [kcal/mol]       0.72557803 [kJ/mol]

  Total HF                          3.19971030 [mEh]       2.00784852 [kcal/mol]       8.40083823 [kJ/mol]
  Total SAPT0                      -3.57193809 [mEh]      -2.24142499 [kcal/mol]      -9.37812216 [kJ/mol]

  Special recipe for scaled SAPT0 (see Manual):
    Electrostatics sSAPT0          -2.30915259 [mEh]      -1.44901513 [kcal/mol]      -6.06267929 [kJ/mol]
    Exchange sSAPT0                 6.16193557 [mEh]       3.86667295 [kcal/mol]      16.17815961 [kJ/mol]
    Induction sSAPT0               -0.63868408 [mEh]      -0.40078031 [kcal/mol]      -1.67686483 [kJ/mol]
    Dispersion sSAPT0              -6.76394637 [mEh]      -4.24444043 [kcal/mol]     -17.75873875 [kJ/mol]
  Total sSAPT0                     -3.54984748 [mEh]      -2.22756292 [kcal/mol]      -9.32012327 [kJ/mol]
  --------------------------------------------------------------------------------------------------------

*** Psi4 exiting successfully. Buy a developer a beer!
