                               Psi4 1.3.2 release

  ==> Input File <==

--------------------------------------------------------------------------
# Any line starting with the # character is a comment line
#! Sample  computation

memory 22 gb

molecule Dimer {
0 1
 C  2.800950    0.758739   -0.251901
 C  2.084141   -0.547949   -0.567478
 C  1.790847   -1.349148    0.694474
 H  2.192604    1.375419    0.410903
 H  3.752001    0.566877    0.247327
 H  3.005768    1.334874   -1.154229
 H  2.691909   -1.146053   -1.249935
 H  1.148606   -0.332597   -1.087660
 H  1.290916   -2.291476    0.469074
 H  2.714129   -1.579966    1.228333
 H  1.150250   -0.777598    1.367986

 --
0 1
 C -0.774283    1.848336    0.159145
 C -1.299115    0.687844    0.563261
 C -1.719485   -0.420589   -0.347557
 C -3.212743   -0.723080   -0.217076
 H -0.505122    2.622009    0.864853
 H -0.602506    2.045943   -0.891890
 H -1.459424    0.526615    1.626183
 H -1.478652   -0.153555   -1.378673
 H -1.149321   -1.322407   -0.107470
 H -3.463905   -0.990470    0.809748
 H -3.805360    0.149467   -0.490246
 H -3.503762   -1.551996   -0.861517

units angstrom

no_reorient
symmetry c1
}

set globals{
  basis jun-cc-pvtz
}

energy('sapt0')

--------------------------------------------------------------------------

  //              Dimer HF             //
    Molecular point group: c1
  Charge       = 0
  Multiplicity = 1
  Basis Set: JUN-CC-PVTZ
    Blend: JUN-CC-PVTZ
  Basis Set: (JUN-CC-PVTZ AUX)
    Blend: JUN-CC-PVTZ-JKFIT
  @DF-RHF Final Energy:  -274.46929129533532
    Total Energy =                       -274.4692912953353243
  //            Monomer A HF           //
    Molecular point group: c1
  Multiplicity = 1
  Basis Set: JUN-CC-PVTZ
    Blend: JUN-CC-PVTZ
  Basis Set: (JUN-CC-PVTZ AUX)
    Blend: JUN-CC-PVTZ-JKFIT
  @DF-RHF Final Energy:  -118.30803799553105
    Total Energy =                       -118.3080379955310519
  //            Monomer B HF           //
    Molecular point group: c1

    Geometry (in Angstrom), charge = 0, multiplicity = 1:

       Center              X                  Y                   Z               Mass
    ------------   -----------------  -----------------  -----------------  -----------------
      Gh(C)           2.820551918908     0.743628024032    -0.253855151412    12.000000000000
      Gh(C)           2.103742918908    -0.563059975968    -0.569432151412    12.000000000000
      Gh(C)           1.810448918908    -1.364258975968     0.692519848588    12.000000000000
      Gh(H)           2.212205918908     1.360308024032     0.408948848588     1.007825032230
      Gh(H)           3.771602918908     0.551766024032     0.245372848588     1.007825032230
      Gh(H)           3.025369918908     1.319763024032    -1.156183151412     1.007825032230
      Gh(H)           2.711510918908    -1.161163975968    -1.251889151412     1.007825032230
      Gh(H)           1.168207918908    -0.347707975968    -1.089614151412     1.007825032230
      Gh(H)           1.310517918908    -2.306586975968     0.467119848588     1.007825032230
      Gh(H)           2.733730918908    -1.595076975968     1.226378848588     1.007825032230
      Gh(H)           1.169851918908    -0.792708975968     1.366031848588     1.007825032230
         C           -0.754681081092     1.833225024032     0.157190848588    12.000000000000
         C           -1.279513081092     0.672733024032     0.561306848588    12.000000000000
         C           -1.699883081092    -0.435699975968    -0.349511151412    12.000000000000
         C           -3.193141081092    -0.738190975968    -0.219030151412    12.000000000000
         H           -0.485520081092     2.606898024032     0.862898848588     1.007825032230
         H           -0.582904081092     2.030832024032    -0.893844151412     1.007825032230
         H           -1.439822081092     0.511504024032     1.624228848588     1.007825032230
         H           -1.459050081092    -0.168665975968    -1.380627151412     1.007825032230
         H           -1.129719081092    -1.337517975968    -0.109424151412     1.007825032230
         H           -3.444303081092    -1.005580975968     0.807793848588     1.007825032230
         H           -3.785758081092     0.134356024032    -0.492200151412     1.007825032230
         H           -3.484160081092    -1.567106975968    -0.863471151412     1.007825032230

  Charge       = 0
  Multiplicity = 1
  Basis Set: JUN-CC-PVTZ
    Blend: JUN-CC-PVTZ
  Basis Set: (JUN-CC-PVTZ AUX)
    Blend: JUN-CC-PVTZ-JKFIT

    Orbital Energies [Eh]
    ---------------------

    Doubly Occupied:

       1A    -11.231254     2A    -11.224820     3A    -11.217569
       4A    -11.214554     5A     -1.081140     6A     -0.988155
       7A     -0.856093     8A     -0.755643     9A     -0.643428
      10A     -0.606709    11A     -0.585499    12A     -0.535265
      13A     -0.517628    14A     -0.486844    15A     -0.476989
      16A     -0.357306

  @DF-RHF Final Energy:  -156.16449247137768

   => Energetics <=

    Nuclear Repulsion Energy =            117.4827405036357817
    One-Electron Energy =                -441.7366760728526174
    Two-Electron Energy =                 168.0894430978391370
    Total Energy =                       -156.1644924713776845

  Dipole Moment: [D]
     X:    -0.1874      Y:    -0.3893      Z:    -0.0645     Total:     0.4368

    SAPT Results
  --------------------------------------------------------------------------------------------------------
    Electrostatics                 -2.41180590 [mEh]      -1.51343105 [kcal/mol]      -6.33219551 [kJ/mol]
      Elst10,r                     -2.41180590 [mEh]      -1.51343105 [kcal/mol]      -6.33219551 [kJ/mol]

    Exchange                        6.30567317 [mEh]       3.95686965 [kcal/mol]      16.55554262 [kJ/mol]
      Exch10                        6.30567317 [mEh]       3.95686965 [kcal/mol]      16.55554262 [kJ/mol]
      Exch10(S^2)                   6.28585651 [mEh]       3.94443451 [kcal/mol]      16.50351398 [kJ/mol]

    Induction                      -0.65469569 [mEh]      -0.41082775 [kcal/mol]      -1.71890331 [kJ/mol]
      Ind20,r                      -1.66225348 [mEh]      -1.04307981 [kcal/mol]      -4.36424591 [kJ/mol]
      Exch-Ind20,r                  1.52249942 [mEh]       0.95538281 [kcal/mol]       3.99732168 [kJ/mol]
      delta HF,r (2)               -0.51494164 [mEh]      -0.32313076 [kcal/mol]      -1.35197908 [kJ/mol]

    Dispersion                     -7.03024986 [mEh]      -4.41154839 [kcal/mol]     -18.45791847 [kJ/mol]
      Disp20                       -7.84338574 [mEh]      -4.92179886 [kcal/mol]     -20.59280642 [kJ/mol]
      Exch-Disp20                   0.81313588 [mEh]       0.51025047 [kcal/mol]       2.13488795 [kJ/mol]
      Disp20 (SS)                  -3.92169287 [mEh]      -2.46089943 [kcal/mol]     -10.29640321 [kJ/mol]
      Disp20 (OS)                  -3.92169287 [mEh]      -2.46089943 [kcal/mol]     -10.29640321 [kJ/mol]
      Exch-Disp20 (SS)              0.52718838 [mEh]       0.33081571 [kcal/mol]       1.38413291 [kJ/mol]
      Exch-Disp20 (OS)              0.28594749 [mEh]       0.17943476 [kcal/mol]       0.75075504 [kJ/mol]

  Total HF                          3.23917157 [mEh]       2.03261085 [kcal/mol]       8.50444379 [kJ/mol]
  Total SAPT0                      -3.79107829 [mEh]      -2.37893754 [kcal/mol]      -9.95347468 [kJ/mol]

  Special recipe for scaled SAPT0 (see Manual):
    Electrostatics sSAPT0          -2.41180590 [mEh]      -1.51343105 [kcal/mol]      -6.33219551 [kJ/mol]
    Exchange sSAPT0                 6.30567317 [mEh]       3.95686965 [kcal/mol]      16.55554262 [kJ/mol]
    Induction sSAPT0               -0.64025085 [mEh]      -0.40176347 [kcal/mol]      -1.68097838 [kJ/mol]
    Dispersion sSAPT0              -7.02253517 [mEh]      -4.40670735 [kcal/mol]     -18.43766354 [kJ/mol]
  Total sSAPT0                     -3.76891875 [mEh]      -2.36503222 [kcal/mol]      -9.89529481 [kJ/mol]
  --------------------------------------------------------------------------------------------------------

*** Psi4 exiting successfully. Buy a developer a beer!
